ITEM: TIMESTEP
0
ITEM: NUMBER OF ATOMS
100
ITEM: BOX BOUNDS pp pp pp
0.0000000000000000e+00 1.0883719140805654e+01
0.0000000000000000e+00 1.0883719140805654e+01
-1.0883719140805655e-01 1.0883719140805655e-02
ITEM: ATOMS id type xs ys zs
1 1 0 0 0.909091
2 1 0.1 0 0.909091
6 1 0 0.1 0.909091
7 1 0.1 0.1 0.909091
3 1 0.2 0 0.909091
4 1 0.3 0 0.909091
8 1 0.2 0.1 0.909091
9 1 0.3 0.1 0.909091
5 1 0.4 0 0.909091
10 1 0.4 0.1 0.909091
11 1 0 0.2 0.909091
12 1 0.1 0.2 0.909091
16 1 0 0.3 0.909091
17 1 0.1 0.3 0.909091
13 1 0.2 0.2 0.909091
14 1 0.3 0.2 0.909091
18 1 0.2 0.3 0.909091
19 1 0.3 0.3 0.909091
15 1 0.4 0.2 0.909091
20 1 0.4 0.3 0.909091
21 1 0 0.4 0.909091
22 1 0.1 0.4 0.909091
23 1 0.2 0.4 0.909091
24 1 0.3 0.4 0.909091
25 1 0.4 0.4 0.909091
26 1 0 0.5 0.909091
27 1 0.1 0.5 0.909091
31 1 0 0.6 0.909091
32 1 0.1 0.6 0.909091
28 1 0.2 0.5 0.909091
29 1 0.3 0.5 0.909091
33 1 0.2 0.6 0.909091
34 1 0.3 0.6 0.909091
30 1 0.4 0.5 0.909091
35 1 0.4 0.6 0.909091
36 1 0 0.7 0.909091
37 1 0.1 0.7 0.909091
41 1 0 0.8 0.909091
42 1 0.1 0.8 0.909091
38 1 0.2 0.7 0.909091
39 1 0.3 0.7 0.909091
43 1 0.2 0.8 0.909091
44 1 0.3 0.8 0.909091
40 1 0.4 0.7 0.909091
45 1 0.4 0.8 0.909091
46 1 0 0.9 0.909091
47 1 0.1 0.9 0.909091
48 1 0.2 0.9 0.909091
49 1 0.3 0.9 0.909091
50 1 0.4 0.9 0.909091
51 1 0.5 0 0.909091
52 1 0.6 0 0.909091
56 1 0.5 0.1 0.909091
57 1 0.6 0.1 0.909091
53 1 0.7 0 0.909091
54 1 0.8 0 0.909091
58 1 0.7 0.1 0.909091
59 1 0.8 0.1 0.909091
55 1 0.9 0 0.909091
60 1 0.9 0.1 0.909091
61 1 0.5 0.2 0.909091
62 1 0.6 0.2 0.909091
66 1 0.5 0.3 0.909091
67 1 0.6 0.3 0.909091
63 1 0.7 0.2 0.909091
64 1 0.8 0.2 0.909091
68 1 0.7 0.3 0.909091
69 1 0.8 0.3 0.909091
65 1 0.9 0.2 0.909091
70 1 0.9 0.3 0.909091
71 1 0.5 0.4 0.909091
72 1 0.6 0.4 0.909091
73 1 0.7 0.4 0.909091
74 1 0.8 0.4 0.909091
75 1 0.9 0.4 0.909091
76 1 0.5 0.5 0.909091
77 1 0.6 0.5 0.909091
81 1 0.5 0.6 0.909091
82 1 0.6 0.6 0.909091
78 1 0.7 0.5 0.909091
79 1 0.8 0.5 0.909091
83 1 0.7 0.6 0.909091
84 1 0.8 0.6 0.909091
80 1 0.9 0.5 0.909091
85 1 0.9 0.6 0.909091
86 1 0.5 0.7 0.909091
87 1 0.6 0.7 0.909091
91 1 0.5 0.8 0.909091
92 1 0.6 0.8 0.909091
88 1 0.7 0.7 0.909091
89 1 0.8 0.7 0.909091
93 1 0.7 0.8 0.909091
94 1 0.8 0.8 0.909091
90 1 0.9 0.7 0.909091
95 1 0.9 0.8 0.909091
96 1 0.5 0.9 0.909091
97 1 0.6 0.9 0.909091
98 1 0.7 0.9 0.909091
99 1 0.8 0.9 0.909091
100 1 0.9 0.9 0.909091
ITEM: TIMESTEP
25
ITEM: NUMBER OF ATOMS
100
ITEM: BOX BOUNDS pp pp pp
0.0000000000000000e+00 1.0883719140805654e+01
0.0000000000000000e+00 1.0883719140805654e+01
-1.0883719140805655e-01 1.0883719140805655e-02
ITEM: ATOMS id type xs ys zs
1 1 0.00172537 0.00601574 0.909091
66 1 0.493163 0.282424 0.909091
25 1 0.382099 0.41772 0.909091
7 1 0.0847759 0.0965447 0.909091
3 1 0.228418 0.0197275 0.909091
4 1 0.323305 0.0120932 0.909091
8 1 0.218113 0.110398 0.909091
9 1 0.311236 0.103048 0.909091
61 1 0.499726 0.188447 0.909091
10 1 0.395971 0.0796732 0.909091
24 1 0.283075 0.396686 0.909091
12 1 0.0968446 0.194596 0.909091
16 1 0.0232511 0.292724 0.909091
17 1 0.111903 0.321438 0.909091
13 1 0.19424 0.204611 0.909091
14 1 0.302495 0.197254 0.909091
18 1 0.215538 0.305298 0.909091
19 1 0.310781 0.29591 0.909091
15 1 0.39829 0.177952 0.909091
20 1 0.400482 0.292444 0.909091
23 1 0.189482 0.410676 0.909091
22 1 0.08053 0.40517 0.909091
27 1 0.0996866 0.495983 0.909091
26 1 -0.0013801 0.506087 0.909091
96 1 0.493006 0.896958 0.909091
50 1 0.398694 0.904595 0.909091
32 1 0.110616 0.583286 0.909091
28 1 0.185049 0.505894 0.909091
29 1 0.302475 0.506555 0.909091
33 1 0.211569 0.592243 0.909091
34 1 0.333286 0.597453 0.909091
30 1 0.401967 0.519483 0.909091
35 1 0.432548 0.619298 0.909091
49 1 0.312304 0.921557 0.909091
37 1 0.0876085 0.688047 0.909091
48 1 0.206466 0.919784 0.909091
42 1 0.096059 0.787173 0.909091
38 1 0.179521 0.708985 0.909091
39 1 0.295104 0.704231 0.909091
43 1 0.199359 0.813584 0.909091
44 1 0.293141 0.811011 0.909091
40 1 0.394563 0.71773 0.909091
45 1 0.391711 0.806779 0.909091
47 1 0.073513 0.89719 0.909091
86 1 0.497071 0.706033 0.909091
2 1 0.132917 0.987094 0.909091
5 1 0.414948 0.990015 0.909091
21 1 0.99083 0.380399 0.909091
52 1 0.601228 0.00733429 0.909091
56 1 0.505878 0.0928381 0.909091
57 1 0.594904 0.111481 0.909091
11 1 0.975851 0.209184 0.909091
54 1 0.794703 0.0231331 0.909091
58 1 0.699113 0.0714899 0.909091
59 1 0.774176 0.120698 0.909091
6 1 0.981963 0.105942 0.909091
60 1 0.879149 0.0779428 0.909091
75 1 0.895889 0.39601 0.909091
62 1 0.594343 0.208125 0.909091
74 1 0.801112 0.404688 0.909091
67 1 0.608419 0.31077 0.909091
63 1 0.702004 0.214054 0.909091
64 1 0.796031 0.206306 0.909091
68 1 0.714797 0.300679 0.909091
69 1 0.810811 0.308387 0.909091
65 1 0.884924 0.178697 0.909091
70 1 0.925557 0.299294 0.909091
71 1 0.527929 0.381635 0.909091
72 1 0.614272 0.413048 0.909091
73 1 0.70796 0.400351 0.909091
76 1 0.505657 0.48823 0.909091
78 1 0.691173 0.486252 0.909091
46 1 0.984334 0.911103 0.909091
77 1 0.594318 0.50532 0.909091
81 1 0.523326 0.583849 0.909091
82 1 0.615067 0.611461 0.909091
41 1 0.978379 0.774897 0.909091
79 1 0.780313 0.508694 0.909091
83 1 0.701799 0.582292 0.909091
84 1 0.798558 0.620446 0.909091
80 1 0.877962 0.501341 0.909091
85 1 0.890106 0.590294 0.909091
100 1 0.89681 0.870753 0.909091
87 1 0.607975 0.709488 0.909091
91 1 0.510056 0.810362 0.909091
92 1 0.598385 0.810529 0.909091
88 1 0.703235 0.690797 0.909091
89 1 0.789375 0.719822 0.909091
93 1 0.694031 0.792283 0.909091
94 1 0.783696 0.819655 0.909091
90 1 0.901135 0.683588 0.909091
95 1 0.878438 0.778231 0.909091
99 1 0.817898 0.920288 0.909091
97 1 0.607311 0.906376 0.909091
98 1 0.728886 0.885476 0.909091
31 1 0.99086 0.595465 0.909091
36 1 0.998638 0.682414 0.909091
51 1 0.506408 0.989466 0.909091
53 1 0.690854 0.977886 0.909091
55 1 0.885929 0.972557 0.909091
ITEM: TIMESTEP
50
ITEM: NUMBER OF ATOMS
100
ITEM: BOX BOUNDS pp pp pp
0.0000000000000000e+00 1.0883719140805654e+01
0.0000000000000000e+00 1.0883719140805654e+01
-1.0883719140805655e-01 1.0883719140805655e-02
ITEM: ATOMS id type xs ys zs
1 1 0.00423307 0.0246281 0.909091
27 1 0.0846661 0.496173 0.909091
25 1 0.375839 0.433953 0.909091
7 1 0.0730247 0.078784 0.909091
3 1 0.247425 0.0228664 0.909091
4 1 0.336841 0.0113014 0.909091
8 1 0.213291 0.126914 0.909091
9 1 0.311652 0.106042 0.909091
22 1 0.0693582 0.399111 0.909091
10 1 0.413528 0.084296 0.909091
24 1 0.266466 0.385916 0.909091
12 1 0.0788781 0.199289 0.909091
16 1 0.0475409 0.281599 0.909091
17 1 0.128346 0.316539 0.909091
13 1 0.19986 0.22428 0.909091
14 1 0.290041 0.213193 0.909091
18 1 0.22085 0.310292 0.909091
19 1 0.314906 0.297092 0.909091
15 1 0.386532 0.17135 0.909091
20 1 0.409679 0.284907 0.909091
23 1 0.164909 0.401434 0.909091
76 1 0.486938 0.456468 0.909091
5 1 0.429787 0.983067 0.909091
2 1 0.150212 0.999172 0.909091
50 1 0.402322 0.897347 0.909091
32 1 0.123073 0.590401 0.909091
28 1 0.19945 0.510449 0.909091
29 1 0.286024 0.525469 0.909091
33 1 0.235814 0.616075 0.909091
34 1 0.359992 0.607657 0.909091
30 1 0.428519 0.539912 0.909091
35 1 0.449755 0.626851 0.909091
49 1 0.300497 0.926944 0.909091
37 1 0.0854648 0.674937 0.909091
48 1 0.207783 0.928473 0.909091
42 1 0.073604 0.776471 0.909091
38 1 0.192226 0.709726 0.909091
39 1 0.27718 0.688387 0.909091
43 1 0.195069 0.841994 0.909091
44 1 0.299511 0.838059 0.909091
40 1 0.402577 0.706656 0.909091
45 1 0.388454 0.804938 0.909091
47 1 0.0699253 0.877848 0.909091
86 1 0.506842 0.70621 0.909091
21 1 0.978639 0.375417 0.909091
52 1 0.610133 0.0265641 0.909091
56 1 0.499711 0.0770524 0.909091
57 1 0.600632 0.128016 0.909091
11 1 0.962862 0.204861 0.909091
54 1 0.777382 0.029709 0.909091
58 1 0.69148 0.0529871 0.909091
59 1 0.765667 0.12729 0.909091
6 1 0.960777 0.112237 0.909091
60 1 0.869747 0.0593091 0.909091
75 1 0.896706 0.393427 0.909091
62 1 0.596054 0.223036 0.909091
74 1 0.80236 0.423879 0.909091
67 1 0.617839 0.312201 0.909091
63 1 0.686079 0.192919 0.909091
64 1 0.796408 0.23664 0.909091
68 1 0.721215 0.300011 0.909091
69 1 0.841272 0.325325 0.909091
65 1 0.874524 0.151983 0.909091
70 1 0.937122 0.293833 0.909091
71 1 0.536527 0.363838 0.909091
72 1 0.616466 0.426832 0.909091
73 1 0.713993 0.391602 0.909091
78 1 0.682399 0.493939 0.909091
66 1 0.518559 0.274313 0.909091
61 1 0.507396 0.172461 0.909091
80 1 0.866329 0.481804 0.909091
26 1 0.978207 0.469757 0.909091
46 1 0.968046 0.910214 0.909091
77 1 0.595512 0.52416 0.909091
81 1 0.527008 0.583924 0.909091
82 1 0.629768 0.621832 0.909091
41 1 0.956856 0.781837 0.909091
79 1 0.782991 0.516455 0.909091
83 1 0.714759 0.581472 0.909091
84 1 0.790888 0.638141 0.909091
96 1 0.506129 0.904964 0.909091
85 1 0.871912 0.578978 0.909091
100 1 0.893547 0.84987 0.909091
87 1 0.593572 0.715819 0.909091
91 1 0.492544 0.795968 0.909091
92 1 0.60486 0.824806 0.909091
88 1 0.705631 0.669449 0.909091
89 1 0.775706 0.725157 0.909091
93 1 0.696373 0.775405 0.909091
94 1 0.802897 0.826669 0.909091
90 1 0.881122 0.67011 0.909091
95 1 0.87184 0.761185 0.909091
99 1 0.803227 0.932047 0.909091
97 1 0.607299 0.922163 0.909091
98 1 0.722085 0.868462 0.909091
31 1 0.994051 0.582977 0.909091
36 1 0.988817 0.681795 0.909091
51 1 0.532886 0.989953 0.909091
53 1 0.685328 0.967055 0.909091
55 1 0.908971 0.97442 0.909091
ITEM: TIMESTEP
75
ITEM: NUMBER OF ATOMS
100
ITEM: BOX BOUNDS pp pp pp
0.0000000000000000e+00 1.0883719140805654e+01
0.0000000000000000e+00 1.0883719140805654e+01
-1.0883719140805655e-01 1.0883719140805655e-02
ITEM: ATOMS id type xs ys zs
76 1 0.467288 0.42621 0.909091
23 1 0.166579 0.417712 0.909091
25 1 0.368769 0.452725 0.909091
7 1 0.0778734 0.0888113 0.909091
3 1 0.24773 0.0281691 0.909091
4 1 0.362393 0.0162745 0.909091
8 1 0.202439 0.133782 0.909091
9 1 0.309649 0.102249 0.909091
22 1 0.0768274 0.391712 0.909091
10 1 0.40911 0.0944975 0.909091
24 1 0.272556 0.422379 0.909091
12 1 0.0745955 0.173105 0.909091
16 1 0.0214 0.275336 0.909091
17 1 0.132868 0.308421 0.909091
13 1 0.16966 0.226821 0.909091
14 1 0.281493 0.212963 0.909091
18 1 0.239817 0.312859 0.909091
19 1 0.341834 0.316551 0.909091
15 1 0.377017 0.19646 0.909091
20 1 0.433048 0.272703 0.909091
2 1 0.14659 0.0303316 0.909091
5 1 0.445087 0.985768 0.909091
91 1 0.474703 0.798478 0.909091
50 1 0.399477 0.889177 0.909091
32 1 0.142156 0.582928 0.909091
28 1 0.188335 0.503568 0.909091
29 1 0.305865 0.540912 0.909091
33 1 0.230581 0.602618 0.909091
34 1 0.350289 0.620791 0.909091
30 1 0.454266 0.526286 0.909091
35 1 0.451342 0.630103 0.909091
49 1 0.311518 0.934979 0.909091
37 1 0.0730335 0.674838 0.909091
48 1 0.198037 0.945286 0.909091
42 1 0.0503304 0.766508 0.909091
38 1 0.190092 0.72108 0.909091
39 1 0.312835 0.710039 0.909091
43 1 0.175208 0.83237 0.909091
44 1 0.302236 0.83604 0.909091
40 1 0.396224 0.704362 0.909091
45 1 0.382451 0.793073 0.909091
47 1 0.0744413 0.860062 0.909091
27 1 0.069104 0.506035 0.909091
21 1 0.985129 0.362167 0.909091
52 1 0.610168 0.0442844 0.909091
56 1 0.526151 0.0718498 0.909091
57 1 0.605162 0.134527 0.909091
11 1 0.967067 0.199282 0.909091
54 1 0.772863 0.0246554 0.909091
58 1 0.694425 0.0918045 0.909091
59 1 0.773023 0.1415 0.909091
6 1 0.94696 0.102195 0.909091
60 1 0.860121 0.0566917 0.909091
75 1 0.895889 0.394656 0.909091
62 1 0.608285 0.227011 0.909091
74 1 0.785967 0.420117 0.909091
67 1 0.635208 0.330737 0.909091
63 1 0.689842 0.178341 0.909091
64 1 0.804751 0.237981 0.909091
68 1 0.711568 0.283055 0.909091
69 1 0.84808 0.32493 0.909091
65 1 0.853395 0.152749 0.909091
70 1 0.928564 0.286931 0.909091
71 1 0.534282 0.361473 0.909091
72 1 0.606108 0.423649 0.909091
73 1 0.691729 0.395571 0.909091
78 1 0.69895 0.486048 0.909091
66 1 0.517867 0.266935 0.909091
61 1 0.508062 0.170299 0.909091
80 1 0.890762 0.487903 0.909091
26 1 0.976507 0.449683 0.909091
1 1 0.993262 0.0173864 0.909091
46 1 0.992096 0.894509 0.909091
77 1 0.603749 0.52345 0.909091
81 1 0.53363 0.589727 0.909091
82 1 0.615499 0.619261 0.909091
41 1 0.969121 0.802203 0.909091
79 1 0.787415 0.520263 0.909091
83 1 0.714106 0.583888 0.909091
84 1 0.791694 0.630423 0.909091
96 1 0.505586 0.879299 0.909091
85 1 0.8621 0.570542 0.909091
100 1 0.893809 0.877138 0.909091
87 1 0.602154 0.728062 0.909091
55 1 0.913841 0.967398 0.909091
92 1 0.609136 0.826147 0.909091
88 1 0.687976 0.6768 0.909091
89 1 0.777783 0.738733 0.909091
93 1 0.68466 0.767339 0.909091
94 1 0.806441 0.834667 0.909091
90 1 0.890159 0.653573 0.909091
95 1 0.86555 0.744204 0.909091
99 1 0.800567 0.931179 0.909091
97 1 0.603337 0.918576 0.909091
98 1 0.69919 0.852746 0.909091
31 1 0.996936 0.562059 0.909091
36 1 0.972409 0.675957 0.909091
51 1 0.533667 0.982337 0.909091
53 1 0.700863 0.959158 0.909091
86 1 0.509229 0.700581 0.909091
ITEM: TIMESTEP
100
ITEM: NUMBER OF ATOMS
100
ITEM: BOX BOUNDS pp pp pp
0.0000000000000000e+00 1.0883719140805654e+01
0.0000000000000000e+00 1.0883719140805654e+01
-1.0883719140805655e-01 1.0883719140805655e-02
ITEM: ATOMS id type xs ys zs
76 1 0.439456 0.403564 0.909091
23 1 0.190597 0.396911 0.909091
25 1 0.374781 0.463407 0.909091
7 1 0.0598041 0.0784545 0.909091
3 1 0.253926 0.0327725 0.909091
4 1 0.340751 0.023172 0.909091
8 1 0.198387 0.125641 0.909091
9 1 0.307942 0.116633 0.909091
22 1 0.0771784 0.395516 0.909091
10 1 0.424426 0.13451 0.909091
24 1 0.273107 0.458581 0.909091
12 1 0.0683446 0.182069 0.909091
16 1 0.0247513 0.266166 0.909091
17 1 0.138554 0.324869 0.909091
13 1 0.152953 0.214076 0.909091
14 1 0.264009 0.209101 0.909091
18 1 0.254478 0.317864 0.909091
19 1 0.361682 0.342668 0.909091
15 1 0.361419 0.205349 0.909091
20 1 0.433279 0.275313 0.909091
2 1 0.159577 0.0446534 0.909091
26 1 0.00440242 0.456968 0.909091
1 1 0.00436046 0.00779054 0.909091
5 1 0.447985 0.978448 0.909091
91 1 0.468272 0.780131 0.909091
50 1 0.402668 0.88716 0.909091
32 1 0.127752 0.590334 0.909091
28 1 0.198636 0.518119 0.909091
29 1 0.317491 0.539185 0.909091
33 1 0.238867 0.602189 0.909091
34 1 0.334995 0.638751 0.909091
30 1 0.470567 0.502736 0.909091
35 1 0.430392 0.598994 0.909091
49 1 0.303059 0.930856 0.909091
37 1 0.0789355 0.658549 0.909091
48 1 0.191414 0.947896 0.909091
42 1 0.0481174 0.753749 0.909091
38 1 0.185863 0.72864 0.909091
39 1 0.297166 0.740435 0.909091
43 1 0.178281 0.815244 0.909091
44 1 0.273042 0.840538 0.909091
40 1 0.412604 0.706852 0.909091
45 1 0.372449 0.792817 0.909091
47 1 0.08302 0.846202 0.909091
27 1 0.0886313 0.507039 0.909091
46 1 0.00756344 0.909297 0.909091
21 1 0.985287 0.344758 0.909091
52 1 0.630494 0.0118628 0.909091
56 1 0.525393 0.080318 0.909091
57 1 0.596462 0.149634 0.909091
11 1 0.982761 0.174977 0.909091
54 1 0.758252 0.037483 0.909091
58 1 0.68393 0.0914301 0.909091
59 1 0.773518 0.131086 0.909091
6 1 0.941811 0.0857544 0.909091
60 1 0.853027 0.0560658 0.909091
75 1 0.897331 0.394721 0.909091
62 1 0.626583 0.242004 0.909091
74 1 0.791468 0.414118 0.909091
67 1 0.610392 0.333608 0.909091
63 1 0.695044 0.186397 0.909091
64 1 0.807506 0.226169 0.909091
68 1 0.713278 0.292345 0.909091
69 1 0.807547 0.318879 0.909091
65 1 0.889123 0.174619 0.909091
70 1 0.910739 0.264664 0.909091
71 1 0.523503 0.355369 0.909091
72 1 0.588664 0.4263 0.909091
73 1 0.697643 0.377555 0.909091
78 1 0.697948 0.483804 0.909091
66 1 0.537066 0.261134 0.909091
61 1 0.501151 0.17568 0.909091
80 1 0.899759 0.48677 0.909091
86 1 0.502932 0.688528 0.909091
77 1 0.613095 0.526956 0.909091
81 1 0.53107 0.578079 0.909091
82 1 0.609044 0.623377 0.909091
41 1 0.959014 0.816037 0.909091
79 1 0.790698 0.516282 0.909091
83 1 0.694298 0.576715 0.909091
84 1 0.786341 0.643896 0.909091
96 1 0.513903 0.88358 0.909091
85 1 0.861135 0.571508 0.909091
100 1 0.881841 0.86011 0.909091
87 1 0.601348 0.720038 0.909091
55 1 0.912 0.980531 0.909091
92 1 0.594236 0.813562 0.909091
88 1 0.700242 0.683466 0.909091
89 1 0.783215 0.734111 0.909091
93 1 0.687702 0.779502 0.909091
94 1 0.791712 0.827201 0.909091
90 1 0.884871 0.664581 0.909091
95 1 0.889643 0.759673 0.909091
99 1 0.805232 0.92532 0.909091
97 1 0.625452 0.915741 0.909091
98 1 0.701897 0.867606 0.909091
31 1 0.978461 0.55579 0.909091
36 1 0.990922 0.686525 0.909091
51 1 0.546426 0.967898 0.909091
53 1 0.711659 0.965671 0.909091
ITEM: TIMESTEP
125
ITEM: NUMBER OF ATOMS
100
ITEM: BOX BOUNDS pp pp pp
0.0000000000000000e+00 1.0883719140805654e+01
0.0000000000000000e+00 1.0883719140805654e+01
-1.0883719140805655e-01 1.0883719140805655e-02
ITEM: ATOMS id type xs ys zs
76 1 0.429576 0.39651 0.909091
23 1 0.218911 0.394579 0.909091
25 1 0.376881 0.474531 0.909091
7 1 0.0546234 0.080193 0.909091
3 1 0.240823 0.0351206 0.909091
4 1 0.355882 0.0356004 0.909091
8 1 0.2076 0.126906 0.909091
9 1 0.306386 0.130803 0.909091
22 1 0.0793215 0.401948 0.909091
10 1 0.406815 0.141663 0.909091
24 1 0.276906 0.467938 0.909091
12 1 0.109194 0.155312 0.909091
16 1 0.0396259 0.254515 0.909091
17 1 0.135633 0.312403 0.909091
13 1 0.164685 0.226977 0.909091
14 1 0.255794 0.212381 0.909091
18 1 0.269174 0.311588 0.909091
19 1 0.341413 0.352565 0.909091
15 1 0.342477 0.221995 0.909091
20 1 0.442322 0.284553 0.909091
2 1 0.142463 0.0417982 0.909091
1 1 0.00987824 0.00410874 0.909091
30 1 0.481508 0.470148 0.909091
27 1 0.11955 0.481237 0.909091
5 1 0.450032 0.973389 0.909091
91 1 0.476225 0.77915 0.909091
50 1 0.407815 0.890778 0.909091
32 1 0.146752 0.60155 0.909091
28 1 0.205589 0.525764 0.909091
29 1 0.320239 0.562099 0.909091
33 1 0.237603 0.619241 0.909091
34 1 0.315358 0.658705 0.909091
46 1 0.0139401 0.906866 0.909091
35 1 0.405889 0.564596 0.909091
49 1 0.294351 0.938531 0.909091
37 1 0.0811081 0.670397 0.909091
48 1 0.189143 0.942841 0.909091
42 1 0.060611 0.75767 0.909091
38 1 0.183889 0.698452 0.909091
39 1 0.264946 0.754857 0.909091
43 1 0.163705 0.810316 0.909091
44 1 0.272577 0.849055 0.909091
40 1 0.391 0.710083 0.909091
45 1 0.366877 0.805966 0.909091
47 1 0.0798217 0.846983 0.909091
21 1 0.976895 0.364229 0.909091
52 1 0.63018 0.00676575 0.909091
56 1 0.514512 0.0746389 0.909091
57 1 0.601448 0.160684 0.909091
11 1 0.979457 0.155611 0.909091
54 1 0.755722 0.0371556 0.909091
58 1 0.660841 0.0876144 0.909091
59 1 0.798602 0.139561 0.909091
6 1 0.950975 0.0727595 0.909091
60 1 0.850246 0.0640926 0.909091
75 1 0.884971 0.373942 0.909091
62 1 0.629814 0.243648 0.909091
74 1 0.80409 0.420732 0.909091
67 1 0.609273 0.336909 0.909091
63 1 0.714734 0.17761 0.909091
64 1 0.799257 0.227453 0.909091
68 1 0.719314 0.274044 0.909091
69 1 0.802857 0.328272 0.909091
65 1 0.880557 0.157991 0.909091
70 1 0.900704 0.269316 0.909091
71 1 0.520593 0.352053 0.909091
72 1 0.572338 0.437281 0.909091
73 1 0.690902 0.389602 0.909091
78 1 0.688767 0.481629 0.909091
66 1 0.542386 0.269676 0.909091
61 1 0.510106 0.179672 0.909091
80 1 0.907432 0.481727 0.909091
26 1 0.997023 0.458852 0.909091
86 1 0.526954 0.65705 0.909091
77 1 0.607445 0.53037 0.909091
81 1 0.516077 0.564435 0.909091
82 1 0.609468 0.625223 0.909091
41 1 0.989124 0.823895 0.909091
79 1 0.790007 0.509616 0.909091
83 1 0.700405 0.585398 0.909091
84 1 0.786244 0.621536 0.909091
96 1 0.512179 0.873311 0.909091
85 1 0.871477 0.58384 0.909091
100 1 0.866803 0.860627 0.909091
87 1 0.61407 0.717157 0.909091
55 1 0.905344 0.9855 0.909091
92 1 0.573604 0.806432 0.909091
88 1 0.706789 0.688756 0.909091
89 1 0.809017 0.724059 0.909091
93 1 0.677334 0.782542 0.909091
94 1 0.784754 0.811986 0.909091
90 1 0.8811 0.677311 0.909091
95 1 0.894055 0.767174 0.909091
99 1 0.810918 0.935348 0.909091
97 1 0.624343 0.901645 0.909091
98 1 0.713843 0.872659 0.909091
31 1 0.961577 0.56365 0.909091
36 1 0.972296 0.685196 0.909091
51 1 0.54417 0.981313 0.909091
53 1 0.72169 0.957787 0.909091
ITEM: TIMESTEP
150
ITEM: NUMBER OF ATOMS
100
ITEM: BOX BOUNDS pp pp pp
0.0000000000000000e+00 1.0883719140805654e+01
0.0000000000000000e+00 1.0883719140805654e+01
-1.0883719140805655e-01 1.0883719140805655e-02
ITEM: ATOMS id type xs ys zs
76 1 0.421246 0.389283 0.909091
23 1 0.227978 0.393598 0.909091
25 1 0.381778 0.474983 0.909091
7 1 0.0421371 0.0975168 0.909091
3 1 0.232712 0.0309406 0.909091
4 1 0.374554 0.0476372 0.909091
8 1 0.218939 0.117976 0.909091
9 1 0.30677 0.119269 0.909091
22 1 0.0634239 0.394586 0.909091
10 1 0.394455 0.143007 0.909091
24 1 0.283266 0.464555 0.909091
12 1 0.127855 0.133897 0.909091
16 1 0.0638707 0.231826 0.909091
17 1 0.127086 0.323826 0.909091
13 1 0.168904 0.230796 0.909091
14 1 0.256639 0.195533 0.909091
18 1 0.241584 0.300158 0.909091
19 1 0.325457 0.368851 0.909091
15 1 0.366709 0.259628 0.909091
20 1 0.445254 0.296387 0.909091
2 1 0.125645 0.0322475 0.909091
1 1 0.021924 0.0073463 0.909091
30 1 0.477831 0.459533 0.909091
27 1 0.147898 0.461288 0.909091
5 1 0.439031 0.985841 0.909091
91 1 0.47826 0.776781 0.909091
50 1 0.408221 0.892726 0.909091
32 1 0.13108 0.59123 0.909091
28 1 0.215031 0.527578 0.909091
29 1 0.306216 0.561902 0.909091
33 1 0.233715 0.621245 0.909091
34 1 0.308409 0.68623 0.909091
46 1 0.000725944 0.903964 0.909091
35 1 0.416025 0.562281 0.909091
49 1 0.299069 0.971411 0.909091
37 1 0.0674596 0.669684 0.909091
48 1 0.188846 0.937478 0.909091
42 1 0.0735104 0.761616 0.909091
38 1 0.165164 0.699921 0.909091
39 1 0.242068 0.756088 0.909091
43 1 0.159936 0.783976 0.909091
44 1 0.276864 0.858194 0.909091
40 1 0.405464 0.726325 0.909091
45 1 0.358226 0.808175 0.909091
47 1 0.0878424 0.872757 0.909091
21 1 0.980578 0.376107 0.909091
26 1 1.00138 0.475761 0.909091
56 1 0.50157 0.0747904 0.909091
57 1 0.589473 0.151038 0.909091
11 1 0.999162 0.174652 0.909091
54 1 0.756229 0.0598848 0.909091
58 1 0.671932 0.0888498 0.909091
59 1 0.795869 0.13848 0.909091
6 1 0.948448 0.0612418 0.909091
60 1 0.854724 0.0565436 0.909091
75 1 0.8904 0.372011 0.909091
62 1 0.640645 0.240467 0.909091
74 1 0.804762 0.428949 0.909091
67 1 0.615171 0.333786 0.909091
63 1 0.707459 0.18229 0.909091
64 1 0.822944 0.229363 0.909091
68 1 0.714622 0.286164 0.909091
69 1 0.795604 0.32648 0.909091
65 1 0.900411 0.148058 0.909091
70 1 0.896545 0.278236 0.909091
71 1 0.515071 0.374424 0.909091
72 1 0.584493 0.435716 0.909091
73 1 0.708281 0.380618 0.909091
80 1 0.887769 0.466254 0.909091
66 1 0.528053 0.262036 0.909091
61 1 0.496411 0.168494 0.909091
86 1 0.523992 0.651127 0.909091
77 1 0.593205 0.531175 0.909091
81 1 0.509676 0.547523 0.909091
82 1 0.620372 0.618729 0.909091
41 1 0.988971 0.806231 0.909091
79 1 0.784214 0.524796 0.909091
83 1 0.709883 0.590125 0.909091
84 1 0.797505 0.617079 0.909091
96 1 0.499745 0.882775 0.909091
85 1 0.878281 0.560988 0.909091
100 1 0.883079 0.874753 0.909091
87 1 0.602307 0.709521 0.909091
55 1 0.906868 0.965469 0.909091
92 1 0.569543 0.799564 0.909091
88 1 0.710938 0.684147 0.909091
89 1 0.796073 0.707344 0.909091
93 1 0.670736 0.772302 0.909091
94 1 0.785309 0.800288 0.909091
90 1 0.886705 0.662979 0.909091
95 1 0.904719 0.777116 0.909091
99 1 0.809628 0.953899 0.909091
97 1 0.608554 0.881068 0.909091
98 1 0.715549 0.876089 0.909091
31 1 0.977991 0.580722 0.909091
36 1 0.985435 0.689975 0.909091
51 1 0.532477 0.978424 0.909091
53 1 0.714757 0.963175 0.909091
52 1 0.628929 0.990145 0.909091
78 1 0.691479 0.501711 0.909091
ITEM: TIMESTEP
175
ITEM: NUMBER OF ATOMS
100
ITEM: BOX BOUNDS pp pp pp
0.0000000000000000e+00 1.0883719140805654e+01
0.0000000000000000e+00 1.0883719140805654e+01
-1.0883719140805655e-01 1.0883719140805655e-02
ITEM: ATOMS id type xs ys zs
76 1 0.399237 0.386044 0.909091
23 1 0.215098 0.3818 0.909091
25 1 0.378902 0.475609 0.909091
7 1 0.0311899 0.102036 0.909091
3 1 0.216046 0.00917487 0.909091
4 1 0.39228 0.0580231 0.909091
8 1 0.210635 0.113457 0.909091
9 1 0.298353 0.103665 0.909091
22 1 0.0689106 0.427853 0.909091
10 1 0.387527 0.155481 0.909091
24 1 0.283852 0.461564 0.909091
12 1 0.120375 0.134962 0.909091
16 1 0.0888641 0.233941 0.909091
17 1 0.138447 0.318326 0.909091
13 1 0.189177 0.212836 0.909091
14 1 0.276892 0.205626 0.909091
18 1 0.227392 0.293433 0.909091
19 1 0.305709 0.370326 0.909091
15 1 0.354569 0.280411 0.909091
20 1 0.460779 0.300176 0.909091
2 1 0.123717 0.0229204 0.909091
1 1 0.0346842 -0.00538069 0.909091
30 1 0.483074 0.464128 0.909091
27 1 0.153788 0.451533 0.909091
26 1 0.00482073 0.503111 0.909091
61 1 0.487964 0.172677 0.909091
56 1 0.48686 0.0653242 0.909091
11 1 -0.00954046 0.206842 0.909091
5 1 0.43757 0.977742 0.909091
91 1 0.477121 0.78808 0.909091
50 1 0.39121 0.897245 0.909091
32 1 0.115716 0.550759 0.909091
28 1 0.214738 0.537905 0.909091
29 1 0.323967 0.543895 0.909091
33 1 0.225603 0.639001 0.909091
34 1 0.321159 0.699678 0.909091
47 1 0.102227 0.895913 0.909091
35 1 0.405969 0.589172 0.909091
49 1 0.327478 0.981481 0.909091
37 1 0.0668134 0.641601 0.909091
48 1 0.185432 0.923473 0.909091
42 1 0.0722719 0.762426 0.909091
38 1 0.147245 0.687145 0.909091
39 1 0.246599 0.767444 0.909091
43 1 0.166333 0.821533 0.909091
44 1 0.264322 0.87896 0.909091
40 1 0.409375 0.712436 0.909091
45 1 0.351851 0.801446 0.909091
21 1 0.975594 0.368111 0.909091
66 1 0.538047 0.251423 0.909091
80 1 0.890714 0.457006 0.909091
57 1 0.575452 0.141946 0.909091
73 1 0.712501 0.392871 0.909091
54 1 0.764857 0.0536092 0.909091
58 1 0.663031 0.0846166 0.909091
59 1 0.801784 0.131726 0.909091
6 1 0.949503 0.0564953 0.909091
60 1 0.85803 0.0418449 0.909091
75 1 0.875914 0.365689 0.909091
62 1 0.617901 0.230289 0.909091
74 1 0.802374 0.434821 0.909091
67 1 0.604388 0.326402 0.909091
63 1 0.711909 0.172299 0.909091
64 1 0.843104 0.232855 0.909091
68 1 0.701739 0.296018 0.909091
69 1 0.797409 0.32878 0.909091
65 1 0.903725 0.148915 0.909091
70 1 0.923788 0.284527 0.909091
71 1 0.51966 0.375571 0.909091
72 1 0.619147 0.421242 0.909091
78 1 0.694472 0.477923 0.909091
86 1 0.510331 0.64547 0.909091
77 1 0.615384 0.523973 0.909091
81 1 0.502204 0.556761 0.909091
82 1 0.61993 0.615479 0.909091
41 1 0.987982 0.801524 0.909091
79 1 0.787078 0.52212 0.909091
83 1 0.719952 0.587216 0.909091
84 1 0.816107 0.610205 0.909091
96 1 0.502103 0.881719 0.909091
85 1 0.889885 0.554549 0.909091
100 1 0.889853 0.868689 0.909091
87 1 0.583907 0.707367 0.909091
55 1 0.928865 0.970196 0.909091
92 1 0.573849 0.798326 0.909091
88 1 0.688355 0.679789 0.909091
89 1 0.804353 0.717688 0.909091
93 1 0.666149 0.772503 0.909091
94 1 0.791887 0.812281 0.909091
90 1 0.899198 0.660384 0.909091
95 1 0.887023 0.769509 0.909091
99 1 0.813587 0.962333 0.909091
97 1 0.603487 0.889945 0.909091
98 1 0.718315 0.866338 0.909091
31 1 0.999634 0.597476 0.909091
36 1 0.970022 0.715198 0.909091
51 1 0.525687 0.973331 0.909091
53 1 0.703926 0.980658 0.909091
52 1 0.615706 0.988556 0.909091
46 1 0.977594 0.892201 0.909091
ITEM: TIMESTEP
200
ITEM: NUMBER OF ATOMS
100
ITEM: BOX BOUNDS pp pp pp
0.0000000000000000e+00 1.0883719140805654e+01
0.0000000000000000e+00 1.0883719140805654e+01
-1.0883719140805655e-01 1.0883719140805655e-02
ITEM: ATOMS id type xs ys zs
76 1 0.395127 0.377704 0.909091
23 1 0.202081 0.38131 0.909091
25 1 0.38424 0.478587 0.909091
7 1 0.0342147 0.111511 0.909091
3 1 0.236211 0.0111721 0.909091
4 1 0.39185 0.0731227 0.909091
8 1 0.193205 0.0871816 0.909091
9 1 0.299318 0.0954457 0.909091
22 1 0.0565422 0.439407 0.909091
10 1 0.382069 0.157517 0.909091
24 1 0.270313 0.454542 0.909091
12 1 0.113236 0.149964 0.909091
16 1 0.081212 0.237012 0.909091
17 1 0.128956 0.321307 0.909091
13 1 0.19669 0.196067 0.909091
14 1 0.300327 0.21292 0.909091
18 1 0.250234 0.279644 0.909091
19 1 0.290082 0.365049 0.909091
15 1 0.352473 0.289904 0.909091
20 1 0.441967 0.296092 0.909091
2 1 0.12695 0.024554 0.909091
56 1 0.49551 0.0614341 0.909091
30 1 0.490961 0.461457 0.909091
27 1 0.172584 0.466188 0.909091
61 1 0.475997 0.167957 0.909091
5 1 0.431584 0.95788 0.909091
91 1 0.458288 0.788627 0.909091
50 1 0.36448 0.883367 0.909091
32 1 0.0862745 0.530582 0.909091
28 1 0.214453 0.549579 0.909091
29 1 0.307105 0.567266 0.909091
33 1 0.24607 0.641794 0.909091
34 1 0.31874 0.695894 0.909091
47 1 0.0772325 0.907344 0.909091
35 1 0.410849 0.618781 0.909091
49 1 0.346636 0.988961 0.909091
37 1 0.0851237 0.631219 0.909091
48 1 0.184356 0.938133 0.909091
42 1 0.073718 0.755226 0.909091
38 1 0.161449 0.710857 0.909091
39 1 0.248735 0.784635 0.909091
43 1 0.16743 0.829655 0.909091
44 1 0.281011 0.883127 0.909091
40 1 0.424974 0.708431 0.909091
45 1 0.341293 0.794616 0.909091
1 1 0.0266648 0.982663 0.909091
81 1 0.494857 0.556013 0.909091
21 1 0.993197 0.377326 0.909091
66 1 0.537889 0.251403 0.909091
80 1 0.921747 0.464388 0.909091
57 1 0.571818 0.124402 0.909091
73 1 0.710191 0.367668 0.909091
54 1 0.757384 0.0430184 0.909091
58 1 0.652698 0.0800602 0.909091
59 1 0.818865 0.13919 0.909091
6 1 0.953879 0.0677265 0.909091
60 1 0.859448 0.046583 0.909091
75 1 0.883176 0.363228 0.909091
62 1 0.640616 0.199256 0.909091
74 1 0.811674 0.419167 0.909091
67 1 0.60056 0.313982 0.909091
63 1 0.722517 0.161962 0.909091
64 1 0.857672 0.248151 0.909091
68 1 0.679661 0.276999 0.909091
69 1 0.771609 0.298908 0.909091
65 1 0.910474 0.152343 0.909091
70 1 0.942254 0.29467 0.909091
71 1 0.535383 0.378174 0.909091
72 1 0.620946 0.419992 0.909091
78 1 0.720059 0.483081 0.909091
11 1 0.994226 0.205903 0.909091
52 1 0.608235 0.00642373 0.909091
86 1 0.501592 0.650633 0.909091
77 1 0.613738 0.510069 0.909091
46 1 0.990739 0.901196 0.909091
82 1 0.612886 0.606101 0.909091
41 1 0.976021 0.812186 0.909091
79 1 0.802533 0.523182 0.909091
83 1 0.710972 0.579541 0.909091
84 1 0.815272 0.617725 0.909091
96 1 0.500776 0.878717 0.909091
85 1 0.891995 0.552204 0.909091
100 1 0.886616 0.864273 0.909091
87 1 0.578176 0.700462 0.909091
55 1 0.927908 0.970593 0.909091
92 1 0.573107 0.818493 0.909091
88 1 0.679847 0.684552 0.909091
89 1 0.798703 0.703821 0.909091
93 1 0.668631 0.788424 0.909091
94 1 0.794095 0.830992 0.909091
90 1 0.897489 0.65507 0.909091
95 1 0.881206 0.763749 0.909091
99 1 0.821336 0.943017 0.909091
97 1 0.607688 0.911216 0.909091
98 1 0.703394 0.874062 0.909091
31 1 0.980259 0.613694 0.909091
36 1 0.974003 0.714033 0.909091
51 1 0.519681 0.969034 0.909091
53 1 0.702181 0.965387 0.909091
26 1 0.999301 0.511868 0.909091
ITEM: TIMESTEP
225
ITEM: NUMBER OF ATOMS
100
ITEM: BOX BOUNDS pp pp pp
0.0000000000000000e+00 1.0883719140805654e+01