ITEM: TIMESTEP
0
ITEM: NUMBER OF ATOMS
100
ITEM: BOX BOUNDS pp pp pp
0.0000000000000000e+00 1.8130943107347374e+01
0.0000000000000000e+00 1.8130943107347374e+01
-1.8130943107347375e-01 1.8130943107347374e-02
ITEM: ATOMS id type xs ys zs
1 1 0 0 0.909091
2 1 0.1 0 0.909091
3 1 0.2 0 0.909091
4 1 0.3 0 0.909091
5 1 0.4 0 0.909091
6 1 0 0.1 0.909091
7 1 0.1 0.1 0.909091
8 1 0.2 0.1 0.909091
9 1 0.3 0.1 0.909091
10 1 0.4 0.1 0.909091
11 1 0 0.2 0.909091
12 1 0.1 0.2 0.909091
13 1 0.2 0.2 0.909091
14 1 0.3 0.2 0.909091
15 1 0.4 0.2 0.909091
16 1 0 0.3 0.909091
17 1 0.1 0.3 0.909091
18 1 0.2 0.3 0.909091
19 1 0.3 0.3 0.909091
20 1 0.4 0.3 0.909091
21 1 0 0.4 0.909091
22 1 0.1 0.4 0.909091
23 1 0.2 0.4 0.909091
24 1 0.3 0.4 0.909091
25 1 0.4 0.4 0.909091
26 1 0 0.5 0.909091
27 1 0.1 0.5 0.909091
28 1 0.2 0.5 0.909091
29 1 0.3 0.5 0.909091
30 1 0.4 0.5 0.909091
31 1 0 0.6 0.909091
32 1 0.1 0.6 0.909091
33 1 0.2 0.6 0.909091
34 1 0.3 0.6 0.909091
35 1 0.4 0.6 0.909091
36 1 0 0.7 0.909091
37 1 0.1 0.7 0.909091
38 1 0.2 0.7 0.909091
39 1 0.3 0.7 0.909091
40 1 0.4 0.7 0.909091
41 1 0 0.8 0.909091
42 1 0.1 0.8 0.909091
43 1 0.2 0.8 0.909091
44 1 0.3 0.8 0.909091
45 1 0.4 0.8 0.909091
46 1 0 0.9 0.909091
47 1 0.1 0.9 0.909091
48 1 0.2 0.9 0.909091
49 1 0.3 0.9 0.909091
50 1 0.4 0.9 0.909091
51 1 0.5 0 0.909091
52 1 0.6 0 0.909091
53 1 0.7 0 0.909091
54 1 0.8 0 0.909091
55 1 0.9 0 0.909091
56 1 0.5 0.1 0.909091
57 1 0.6 0.1 0.909091
58 1 0.7 0.1 0.909091
59 1 0.8 0.1 0.909091
60 1 0.9 0.1 0.909091
61 1 0.5 0.2 0.909091
62 1 0.6 0.2 0.909091
63 1 0.7 0.2 0.909091
64 1 0.8 0.2 0.909091
65 1 0.9 0.2 0.909091
66 1 0.5 0.3 0.909091
67 1 0.6 0.3 0.909091
68 1 0.7 0.3 0.909091
69 1 0.8 0.3 0.909091
70 1 0.9 0.3 0.909091
71 1 0.5 0.4 0.909091
72 1 0.6 0.4 0.909091
73 1 0.7 0.4 0.909091
74 1 0.8 0.4 0.909091
75 1 0.9 0.4 0.909091
76 1 0.5 0.5 0.909091
77 1 0.6 0.5 0.909091
78 1 0.7 0.5 0.909091
79 1 0.8 0.5 0.909091
80 1 0.9 0.5 0.909091
81 1 0.5 0.6 0.909091
82 1 0.6 0.6 0.909091
83 1 0.7 0.6 0.909091
84 1 0.8 0.6 0.909091
85 1 0.9 0.6 0.909091
86 1 0.5 0.7 0.909091
87 1 0.6 0.7 0.909091
88 1 0.7 0.7 0.909091
89 1 0.8 0.7 0.909091
90 1 0.9 0.7 0.909091
91 1 0.5 0.8 0.909091
92 1 0.6 0.8 0.909091
93 1 0.7 0.8 0.909091
94 1 0.8 0.8 0.909091
95 1 0.9 0.8 0.909091
96 1 0.5 0.9 0.909091
97 1 0.6 0.9 0.909091
98 1 0.7 0.9 0.909091
99 1 0.8 0.9 0.909091
100 1 0.9 0.9 0.909091
ITEM: TIMESTEP
25
ITEM: NUMBER OF ATOMS
100
ITEM: BOX BOUNDS pp pp pp
0.0000000000000000e+00 1.8130943107347374e+01
0.0000000000000000e+00 1.8130943107347374e+01
-1.8130943107347375e-01 1.8130943107347374e-02
ITEM: ATOMS id type xs ys zs
25 1 0.413504 0.386862 0.909091
2 1 0.095054 0.00758184 0.909091
71 1 0.490483 0.402503 0.909091
51 1 0.491189 0.007933 0.909091
23 1 0.194819 0.393831 0.909091
24 1 0.310779 0.409116 0.909091
7 1 0.0817872 0.11963 0.909091
8 1 0.20757 0.0828676 0.909091
9 1 0.31688 0.103806 0.909091
10 1 0.380039 0.116037 0.909091
11 1 0.000199361 0.201804 0.909091
12 1 0.116537 0.218183 0.909091
13 1 0.18027 0.205384 0.909091
14 1 0.293927 0.208133 0.909091
15 1 0.414707 0.182284 0.909091
16 1 0.0205693 0.304042 0.909091
17 1 0.111167 0.286843 0.909091
18 1 0.201473 0.290471 0.909091
19 1 0.313683 0.312189 0.909091
20 1 0.388253 0.318631 0.909091
21 1 0.00540262 0.393134 0.909091
22 1 0.0976732 0.416509 0.909091
27 1 0.104694 0.491228 0.909091
28 1 0.196757 0.498431 0.909091
29 1 0.313917 0.497333 0.909091
50 1 0.386618 0.892342 0.909091
91 1 0.484262 0.792351 0.909091
86 1 0.484423 0.702677 0.909091
81 1 0.48225 0.615362 0.909091
30 1 0.38862 0.503413 0.909091
49 1 0.31365 0.897736 0.909091
32 1 0.10491 0.58734 0.909091
33 1 0.200727 0.586536 0.909091
34 1 0.30127 0.597386 0.909091
35 1 0.405339 0.594964 0.909091
48 1 0.181045 0.888628 0.909091
37 1 0.107584 0.697325 0.909091
38 1 0.188634 0.707312 0.909091
39 1 0.304572 0.72062 0.909091
40 1 0.398795 0.683371 0.909091
41 1 0.0168615 0.796893 0.909091
42 1 0.0799344 0.808349 0.909091
43 1 0.212825 0.820166 0.909091
44 1 0.300594 0.793024 0.909091
45 1 0.389124 0.801787 0.909091
46 1 0.0157668 0.878725 0.909091
47 1 0.100078 0.90152 0.909091
3 1 0.183528 0.982155 0.909091
4 1 0.320519 0.993241 0.909091
5 1 0.3982 0.979459 0.909091
75 1 0.919932 0.405509 0.909091
52 1 0.599189 0.0163111 0.909091
53 1 0.72335 0.0085628 0.909091
54 1 0.795287 0.0100868 0.909091
55 1 0.910959 0.00676001 0.909091
56 1 0.508824 0.106746 0.909091
57 1 0.617274 0.0999643 0.909091
58 1 0.701995 0.0917167 0.909091
59 1 0.785915 0.119456 0.909091
60 1 0.88238 0.112742 0.909091
61 1 0.517603 0.189595 0.909091
62 1 0.587521 0.211102 0.909091
63 1 0.70786 0.201591 0.909091
64 1 0.796716 0.178526 0.909091
65 1 0.910522 0.203626 0.909091
66 1 0.503405 0.315968 0.909091
67 1 0.579533 0.313381 0.909091
68 1 0.684757 0.299667 0.909091
69 1 0.788039 0.286054 0.909091
70 1 0.895214 0.292942 0.909091
74 1 0.784294 0.414069 0.909091
72 1 0.609717 0.383128 0.909091
73 1 0.699119 0.405845 0.909091
6 1 0.99307 0.101568 0.909091
76 1 0.505339 0.480378 0.909091
77 1 0.608487 0.491752 0.909091
78 1 0.70912 0.499049 0.909091
79 1 0.793058 0.489621 0.909091
36 1 0.992239 0.721859 0.909091
31 1 0.997546 0.591822 0.909091
26 1 0.999512 0.508187 0.909091
97 1 0.613117 0.896156 0.909091
80 1 0.894124 0.504379 0.909091
100 1 0.903033 0.901407 0.909091
82 1 0.607267 0.609129 0.909091
83 1 0.714049 0.608805 0.909091
84 1 0.796536 0.579988 0.909091
85 1 0.892086 0.593621 0.909091
99 1 0.790911 0.899485 0.909091
87 1 0.589772 0.677806 0.909091
88 1 0.71258 0.677488 0.909091
89 1 0.781009 0.681834 0.909091
90 1 0.906818 0.702098 0.909091
98 1 0.716264 0.919667 0.909091
92 1 0.584914 0.821806 0.909091
93 1 0.692687 0.792755 0.909091
94 1 0.795024 0.81577 0.909091
95 1 0.887848 0.782153 0.909091
96 1 0.522974 0.908011 0.909091
1 1 0.99975 0.992609 0.909091
ITEM: TIMESTEP
50
ITEM: NUMBER OF ATOMS
100
ITEM: BOX BOUNDS pp pp pp
0.0000000000000000e+00 1.8130943107347374e+01
0.0000000000000000e+00 1.8130943107347374e+01
-1.8130943107347375e-01 1.8130943107347374e-02
ITEM: ATOMS id type xs ys zs
25 1 0.427615 0.372822 0.909091
2 1 0.0902291 0.0149172 0.909091
71 1 0.480248 0.405099 0.909091
51 1 0.482337 0.0158578 0.909091
23 1 0.189432 0.387732 0.909091
24 1 0.321819 0.418505 0.909091
7 1 0.0630835 0.139323 0.909091
8 1 0.215148 0.0655963 0.909091
9 1 0.321305 0.102489 0.909091
10 1 0.37318 0.138462 0.909091
11 1 -1.63266e-05 0.203471 0.909091
12 1 0.121547 0.229271 0.909091
13 1 0.17366 0.205915 0.909091
14 1 0.287856 0.216264 0.909091
15 1 0.428821 0.163302 0.909091
16 1 0.0414767 0.30832 0.909091
17 1 0.121087 0.286353 0.909091
18 1 0.202175 0.28033 0.909091
19 1 0.327073 0.324364 0.909091
20 1 0.377288 0.338809 0.909091
21 1 0.0104962 0.386056 0.909091
22 1 0.0950744 0.432773 0.909091
27 1 0.109943 0.482974 0.909091
28 1 0.193058 0.497321 0.909091
29 1 0.327364 0.494045 0.909091
50 1 0.375729 0.884291 0.909091
91 1 0.468348 0.784238 0.909091
86 1 0.468274 0.704989 0.909091
81 1 0.463254 0.631255 0.909091
30 1 0.377677 0.507366 0.909091
49 1 0.324952 0.896204 0.909091
32 1 0.110045 0.574387 0.909091
33 1 0.201255 0.57245 0.909091
34 1 0.302609 0.59453 0.909091
35 1 0.41147 0.59056 0.909091
48 1 0.161738 0.876662 0.909091
37 1 0.116134 0.694832 0.909091
38 1 0.176287 0.714489 0.909091
39 1 0.309859 0.737936 0.909091
40 1 0.398275 0.666228 0.909091
41 1 0.0195714 0.788539 0.909091
42 1 0.0734863 0.822574 0.909091
43 1 0.225403 0.84132 0.909091
44 1 0.300921 0.789757 0.909091
45 1 0.377843 0.803913 0.909091
46 1 0.0323374 0.856339 0.909091
47 1 0.100515 0.902491 0.909091
3 1 0.166557 0.964118 0.909091
4 1 0.342236 0.985915 0.909091
5 1 0.395308 0.958516 0.909091
75 1 0.940571 0.411044 0.909091
52 1 0.598479 0.033367 0.909091
53 1 0.741933 0.0169979 0.909091
54 1 0.795028 0.0204434 0.909091
55 1 0.922393 0.0134152 0.909091
56 1 0.517848 0.114276 0.909091
57 1 0.635023 0.0991875 0.909091
58 1 0.704053 0.0831336 0.909091
59 1 0.764533 0.117408 0.909091
60 1 0.864489 0.125822 0.909091
61 1 0.535881 0.178433 0.909091
62 1 0.574097 0.222114 0.909091
63 1 0.716231 0.20313 0.909091
64 1 0.800056 0.178341 0.909091
65 1 0.921371 0.207369 0.909091
66 1 0.506938 0.332709 0.909091
67 1 0.559492 0.327764 0.909091
68 1 0.669468 0.29936 0.909091
69 1 0.775966 0.271913 0.909091
70 1 0.890445 0.285429 0.909091
74 1 0.767638 0.428746 0.909091
72 1 0.619203 0.365146 0.909091
73 1 0.698666 0.412034 0.909091
6 1 0.986514 0.103375 0.909091
76 1 0.510477 0.459574 0.909091
77 1 0.617075 0.483385 0.909091
78 1 0.719046 0.497588 0.909091
79 1 0.785412 0.479318 0.909091
36 1 0.984298 0.744659 0.909091
31 1 0.995072 0.582653 0.909091
26 1 0.998995 0.517211 0.909091
97 1 0.625377 0.891407 0.909091
80 1 0.88821 0.509216 0.909091
100 1 0.906065 0.902923 0.909091
82 1 0.615874 0.617088 0.909091
83 1 0.729743 0.607565 0.909091
84 1 0.792688 0.559849 0.909091
85 1 0.88407 0.586668 0.909091
99 1 0.780734 0.898601 0.909091
87 1 0.578237 0.656738 0.909091
88 1 0.714019 0.663831 0.909091
89 1 0.771933 0.664287 0.909091
90 1 0.91393 0.705225 0.909091
98 1 0.73375 0.9395 0.909091
92 1 0.570121 0.844838 0.909091
93 1 0.685437 0.785572 0.909091
94 1 0.790045 0.832407 0.909091
95 1 0.875853 0.763447 0.909091
96 1 0.546572 0.915834 0.909091
1 1 0.999266 0.985385 0.909091
ITEM: TIMESTEP
75
ITEM: NUMBER OF ATOMS
100
ITEM: BOX BOUNDS pp pp pp
0.0000000000000000e+00 1.8130943107347374e+01
0.0000000000000000e+00 1.8130943107347374e+01
-1.8130943107347375e-01 1.8130943107347374e-02
ITEM: ATOMS id type xs ys zs
25 1 0.442185 0.35736 0.909091
2 1 0.0854595 0.021814 0.909091
71 1 0.470599 0.407074 0.909091
51 1 0.473501 0.0238016 0.909091
23 1 0.18378 0.38167 0.909091
24 1 0.333365 0.428578 0.909091
7 1 0.0432581 0.159334 0.909091
8 1 0.222772 0.0482385 0.909091
9 1 0.312419 0.0954301 0.909091
10 1 0.378655 0.166841 0.909091
29 1 0.320434 0.484269 0.909091
12 1 0.109643 0.219855 0.909091
13 1 0.187293 0.19887 0.909091
14 1 0.281636 0.224451 0.909091
15 1 0.444127 0.144022 0.909091
16 1 0.0631803 0.313025 0.909091
17 1 0.128162 0.315424 0.909091
18 1 0.201368 0.269003 0.909091
19 1 0.320853 0.33107 0.909091
20 1 0.382976 0.364457 0.909091
21 1 0.0147837 0.378964 0.909091
22 1 0.0865527 0.429906 0.909091
27 1 0.12195 0.494493 0.909091
28 1 0.188388 0.497456 0.909091
50 1 0.38752 0.871673 0.909091
91 1 0.452004 0.774987 0.909091
86 1 0.451047 0.706416 0.909091
81 1 0.448027 0.647014 0.909091
30 1 0.38706 0.517305 0.909091
49 1 0.314105 0.899846 0.909091
32 1 0.115685 0.560667 0.909091
33 1 0.201222 0.556881 0.909091
34 1 0.30409 0.591366 0.909091
35 1 0.418193 0.587962 0.909091
48 1 0.142909 0.864326 0.909091
37 1 0.121153 0.690295 0.909091
38 1 0.167451 0.723716 0.909091
39 1 0.31901 0.732705 0.909091
40 1 0.39401 0.649016 0.909091
41 1 0.0222028 0.789879 0.909091
42 1 0.103041 0.828815 0.909091
43 1 0.237279 0.863058 0.909091
44 1 0.298691 0.810061 0.909091
45 1 0.365383 0.806787 0.909091
46 1 0.0277919 0.84728 0.909091
47 1 0.100979 0.902746 0.909091
3 1 0.148647 0.945231 0.909091
4 1 0.359483 0.981543 0.909091
5 1 0.396353 0.932462 0.909091
75 1 0.962705 0.416166 0.909091
52 1 0.598456 0.0518284 0.909091
53 1 0.736366 0.0242253 0.909091
54 1 0.81796 0.0322031 0.909091
55 1 0.9348 0.0197391 0.909091
56 1 0.52564 0.119832 0.909091
57 1 0.653252 0.0969139 0.909091
58 1 0.701856 0.0706597 0.909091
59 1 0.742925 0.106114 0.909091
60 1 0.845749 0.139712 0.909091
61 1 0.553432 0.16704 0.909091
62 1 0.562383 0.235357 0.909091
63 1 0.725768 0.204793 0.909091
64 1 0.807413 0.189948 0.909091
65 1 0.933024 0.211533 0.909091
66 1 0.491201 0.352858 0.909091
67 1 0.560629 0.3411 0.909091
68 1 0.653819 0.299454 0.909091
69 1 0.763538 0.256875 0.909091
70 1 0.885932 0.277066 0.909091
74 1 0.7466 0.429326 0.909091
72 1 0.627777 0.345895 0.909091
73 1 0.69572 0.418243 0.909091
6 1 0.9806 0.105664 0.909091
76 1 0.517262 0.439956 0.909091
77 1 0.625895 0.474831 0.909091
78 1 0.729826 0.494932 0.909091
79 1 0.783619 0.485608 0.909091
11 1 0.999018 0.204552 0.909091
36 1 0.961702 0.753412 0.909091
31 1 0.992119 0.577099 0.909091
26 1 0.998868 0.522447 0.909091
97 1 0.635463 0.885848 0.909091
80 1 0.882108 0.515407 0.909091
100 1 0.909114 0.904578 0.909091
82 1 0.632421 0.615692 0.909091
83 1 0.749563 0.585778 0.909091
84 1 0.787841 0.539471 0.909091
85 1 0.875916 0.578249 0.909091
99 1 0.769585 0.899505 0.909091
87 1 0.55895 0.645116 0.909091
88 1 0.691485 0.668783 0.909091
89 1 0.783428 0.647378 0.909091
90 1 0.921059 0.710435 0.909091
98 1 0.751923 0.960605 0.909091
92 1 0.556199 0.869368 0.909091
93 1 0.678232 0.778456 0.909091
94 1 0.785579 0.847567 0.909091
95 1 0.864921 0.743293 0.909091
96 1 0.571533 0.923009 0.909091
1 1 0.998155 0.97864 0.909091
ITEM: TIMESTEP
100
ITEM: NUMBER OF ATOMS
100
ITEM: BOX BOUNDS pp pp pp
0.0000000000000000e+00 1.8130943107347374e+01
0.0000000000000000e+00 1.8130943107347374e+01
-1.8130943107347375e-01 1.8130943107347374e-02
ITEM: ATOMS id type xs ys zs
25 1 0.424437 0.339034 0.909091
2 1 0.0805658 0.0282635 0.909091
71 1 0.457993 0.412442 0.909091
51 1 0.464658 0.0318891 0.909091
23 1 0.177686 0.375337 0.909091
24 1 0.348206 0.43039 0.909091
7 1 0.0312702 0.170789 0.909091
8 1 0.230599 0.0309618 0.909091
9 1 0.303709 0.088585 0.909091
10 1 0.384055 0.194435 0.909091
29 1 0.309982 0.482014 0.909091
12 1 0.0983655 0.210575 0.909091
13 1 0.200548 0.194065 0.909091
14 1 0.274712 0.232798 0.909091
15 1 0.460047 0.124898 0.909091
16 1 0.0844116 0.318035 0.909091
17 1 0.135985 0.344407 0.909091
18 1 0.199874 0.256015 0.909091
19 1 0.3138 0.337923 0.909091
20 1 0.383513 0.391425 0.909091
21 1 0.0195989 0.371729 0.909091
22 1 0.0773999 0.425487 0.909091
27 1 0.132831 0.499863 0.909091
28 1 0.185023 0.491762 0.909091
50 1 0.397716 0.851281 0.909091
91 1 0.435129 0.7653 0.909091
86 1 0.432614 0.711491 0.909091
81 1 0.454106 0.654507 0.909091
30 1 0.397595 0.528578 0.909091
49 1 0.303553 0.902755 0.909091
32 1 0.120606 0.554534 0.909091
33 1 0.201885 0.546553 0.909091
34 1 0.305895 0.588014 0.909091
35 1 0.424253 0.587322 0.909091
48 1 0.156088 0.876677 0.909091
37 1 0.117889 0.680849 0.909091
38 1 0.166837 0.737894 0.909091
39 1 0.328511 0.728478 0.909091
40 1 0.369452 0.633782 0.909091
41 1 0.03035 0.788348 0.909091
42 1 0.109311 0.805582 0.909091
43 1 0.250151 0.884523 0.909091
44 1 0.297268 0.831376 0.909091
45 1 0.352301 0.810761 0.909091
46 1 0.0194436 0.849437 0.909091
47 1 0.0885229 0.899398 0.909091
3 1 0.138379 0.931331 0.909091
4 1 0.373124 0.979502 0.909091
5 1 0.400947 0.909608 0.909091
26 1 0.000320202 0.513007 0.909091
75 1 0.985636 0.421213 0.909091
52 1 0.59981 0.0718155 0.909091
53 1 0.741639 0.0232289 0.909091
54 1 0.839857 0.0439191 0.909091
55 1 0.94856 0.0254379 0.909091
56 1 0.526619 0.113709 0.909091
57 1 0.658128 0.102865 0.909091
58 1 0.685252 0.0467068 0.909091
59 1 0.736626 0.106504 0.909091
60 1 0.828221 0.150335 0.909091
61 1 0.577072 0.168364 0.909091
62 1 0.55081 0.247626 0.909091
63 1 0.730845 0.196812 0.909091
64 1 0.811721 0.205703 0.909091
65 1 0.941477 0.216664 0.909091
11 1 0.99246 0.213491 0.909091
67 1 0.565307 0.354537 0.909091
68 1 0.648598 0.279065 0.909091
69 1 0.7572 0.250093 0.909091
70 1 0.881951 0.267666 0.909091
74 1 0.747082 0.434746 0.909091
72 1 0.624204 0.347156 0.909091
73 1 0.669519 0.420319 0.909091
6 1 0.975296 0.108559 0.909091
76 1 0.529173 0.423794 0.909091
77 1 0.635421 0.465706 0.909091
78 1 0.729904 0.493437 0.909091
79 1 0.793891 0.467649 0.909091
66 1 0.509613 0.368315 0.909091
36 1 0.940687 0.767563 0.909091
31 1 0.987486 0.585996 0.909091
1 1 0.996016 0.972838 0.909091
97 1 0.643157 0.880779 0.909091
80 1 0.876127 0.517952 0.909091
100 1 0.912268 0.906368 0.909091
82 1 0.649156 0.615323 0.909091
83 1 0.759877 0.580385 0.909091
84 1 0.793473 0.527733 0.909091
85 1 0.866767 0.573362 0.909091
99 1 0.754553 0.914468 0.909091
87 1 0.540161 0.633339 0.909091
88 1 0.668936 0.672506 0.909091
89 1 0.793515 0.628657 0.909091
90 1 0.920015 0.706405 0.909091
98 1 0.771446 0.980127 0.909091
92 1 0.541521 0.88782 0.909091
93 1 0.671051 0.771316 0.909091
94 1 0.784883 0.849619 0.909091
95 1 0.855777 0.722267 0.909091
96 1 0.599718 0.935731 0.909091
ITEM: TIMESTEP
125
ITEM: NUMBER OF ATOMS
100
ITEM: BOX BOUNDS pp pp pp
0.0000000000000000e+00 1.8130943107347374e+01
0.0000000000000000e+00 1.8130943107347374e+01
-1.8130943107347375e-01 1.8130943107347374e-02
ITEM: ATOMS id type xs ys zs
25 1 0.406151 0.32219 0.909091
2 1 0.0754378 0.034411 0.909091
71 1 0.447088 0.417358 0.909091
51 1 0.455809 0.0406662 0.909091
23 1 0.196654 0.385896 0.909091
24 1 0.345805 0.448837 0.909091
7 1 0.0318684 0.169815 0.909091
8 1 0.238778 0.0139425 0.909091
9 1 0.294683 0.0814345 0.909091
10 1 0.389648 0.221817 0.909091
29 1 0.298741 0.482846 0.909091
12 1 0.0860548 0.200816 0.909091
13 1 0.214699 0.188436 0.909091
14 1 0.265806 0.241108 0.909091
15 1 0.474994 0.105226 0.909091
16 1 0.0937582 0.315768 0.909091
17 1 0.129693 0.364598 0.909091
18 1 0.199011 0.244227 0.909091
19 1 0.307559 0.345366 0.909091
20 1 0.400405 0.397803 0.909091
21 1 0.0269338 0.363817 0.909091
22 1 0.0672662 0.420278 0.909091
27 1 0.126662 0.489137 0.909091
28 1 0.199937 0.474055 0.909091
75 1 0.00854962 0.427779 0.909091
11 1 0.00226552 0.232566 0.909091
50 1 0.407207 0.821589 0.909091
91 1 0.418331 0.771369 0.909091
86 1 0.412442 0.703828 0.909091
81 1 0.459915 0.657149 0.909091
30 1 0.407234 0.539088 0.909091
49 1 0.312519 0.909726 0.909091
32 1 0.122661 0.567014 0.909091
33 1 0.203936 0.545071 0.909091
34 1 0.307854 0.584267 0.909091
35 1 0.430044 0.590243 0.909091
48 1 0.179126 0.886847 0.909091
37 1 0.11546 0.672399 0.909091
38 1 0.164786 0.751647 0.909091
39 1 0.338695 0.725055 0.909091
40 1 0.34698 0.617909 0.909091
41 1 0.0391397 0.782874 0.909091
42 1 0.108879 0.776122 0.909091
43 1 0.244994 0.899408 0.909091
44 1 0.29252 0.855953 0.909091
45 1 0.341405 0.813001 0.909091
46 1 0.0120525 0.856053 0.909091
47 1 0.063901 0.886701 0.909091
3 1 0.135898 0.934143 0.909091
4 1 0.387388 0.975869 0.909091
5 1 0.405267 0.897208 0.909091
26 1 0.0016136 0.50404 0.909091
66 1 0.511704 0.36687 0.909091
52 1 0.602111 0.0931108 0.909091
53 1 0.744442 0.0331073 0.909091
54 1 0.861178 0.0554745 0.909091
55 1 0.963687 0.0303345 0.909091
56 1 0.529646 0.107805 0.909091
57 1 0.658505 0.112303 0.909091
58 1 0.664796 0.0264139 0.909091
59 1 0.728824 0.105879 0.909091
60 1 0.813344 0.153809 0.909091
61 1 0.600068 0.169479 0.909091
62 1 0.539734 0.25926 0.909091
63 1 0.729088 0.174552 0.909091
64 1 0.811346 0.229712 0.909091
65 1 0.920901 0.224479 0.909091
79 1 0.809719 0.443696 0.909091
67 1 0.572078 0.368158 0.909091
68 1 0.645204 0.254725 0.909091
69 1 0.759871 0.255859 0.909091
70 1 0.878219 0.257165 0.909091
74 1 0.742997 0.43659 0.909091
72 1 0.626159 0.351624 0.909091
73 1 0.652956 0.405292 0.909091
6 1 0.970455 0.11171 0.909091
76 1 0.548502 0.425326 0.909091
77 1 0.635657 0.473168 0.909091
78 1 0.730056 0.493946 0.909091
36 1 0.924096 0.788251 0.909091
31 1 0.982948 0.59379 0.909091
1 1 0.992752 0.968412 0.909091
97 1 0.649444 0.877173 0.909091
80 1 0.870475 0.509549 0.909091
100 1 0.915671 0.90829 0.909091
82 1 0.665868 0.613987 0.909091
83 1 0.754793 0.583924 0.909091
84 1 0.809142 0.50972 0.909091
85 1 0.854665 0.579349 0.909091
99 1 0.740264 0.930769 0.909091
87 1 0.520798 0.621741 0.909091
88 1 0.64639 0.677478 0.909091
89 1 0.809498 0.614696 0.909091
90 1 0.913072 0.696401 0.909091
98 1 0.801721 0.981535 0.909091
92 1 0.527728 0.906444 0.909091
93 1 0.663839 0.763972 0.909091
94 1 0.78382 0.852289 0.909091
95 1 0.848682 0.700812 0.909091
96 1 0.628582 0.946801 0.909091
ITEM: TIMESTEP
150
ITEM: NUMBER OF ATOMS
100
ITEM: BOX BOUNDS pp pp pp
0.0000000000000000e+00 1.8130943107347374e+01
0.0000000000000000e+00 1.8130943107347374e+01
-1.8130943107347375e-01 1.8130943107347374e-02
ITEM: ATOMS id type xs ys zs
25 1 0.387541 0.306824 0.909091
2 1 0.0699913 0.0403605 0.909091
71 1 0.462713 0.431998 0.909091
51 1 0.444523 0.0460387 0.909091
23 1 0.219377 0.399864 0.909091
24 1 0.344219 0.468177 0.909091
7 1 0.0270436 0.167353 0.909091
8 1 0.247387 -0.00279552 0.909091
9 1 0.285205 0.0737639 0.909091
10 1 0.395231 0.249667 0.909091
29 1 0.283383 0.486292 0.909091
12 1 0.0774698 0.19368 0.909091
13 1 0.231052 0.17917 0.909091
14 1 0.254684 0.248451 0.909091
15 1 0.480655 0.0884916 0.909091
16 1 0.093914 0.306659 0.909091
17 1 0.127054 0.390335 0.909091
18 1 0.198096 0.237176 0.909091
19 1 0.301705 0.352967 0.909091
20 1 0.395039 0.388654 0.909091
21 1 0.0360795 0.358144 0.909091
22 1 0.0746729 0.408847 0.909091
27 1 0.120794 0.479085 0.909091
28 1 0.214745 0.457192 0.909091
75 1 0.0141788 0.438808 0.909091
11 1 0.0131559 0.249995 0.909091
26 1 0.00307506 0.494211 0.909091
50 1 0.409454 0.828021 0.909091
91 1 0.406644 0.744913 0.909091
86 1 0.392987 0.692441 0.909091
81 1 0.464886 0.658574 0.909091
30 1 0.412915 0.541825 0.909091
49 1 0.33164 0.923087 0.909091
32 1 0.125679 0.578273 0.909091
33 1 0.205007 0.542129 0.909091
34 1 0.291637 0.564176 0.909091
35 1 0.43981 0.603286 0.909091
48 1 0.190874 0.889099 0.909091
37 1 0.11331 0.664472 0.909091
38 1 0.165443 0.764817 0.909091
39 1 0.349737 0.722726 0.909091
40 1 0.343858 0.617756 0.909091
41 1 0.0492835 0.778629 0.909091
42 1 0.103521 0.746971 0.909091
43 1 0.245954 0.916081 0.909091
44 1 0.285407 0.876262 0.909091
45 1 0.331671 0.815275 0.909091
46 1 -0.00600186 0.855906 0.909091
47 1 0.0510467 0.879866 0.909091
3 1 0.131156 0.939946 0.909091
4 1 0.401968 0.971214 0.909091
5 1 0.408752 0.884233 0.909091
66 1 0.50262 0.356994 0.909091
52 1 0.60136 0.11503 0.909091
53 1 0.745862 0.0445263 0.909091
54 1 0.882332 0.0668241 0.909091
55 1 0.979702 0.0344303 0.909091
56 1 0.545903 0.102141 0.909091
57 1 0.66257 0.122357 0.909091
58 1 0.644996 0.007581 0.909091
59 1 0.719348 0.101803 0.909091
60 1 0.797371 0.158598 0.909091
61 1 0.623623 0.16888 0.909091
62 1 0.529004 0.271033 0.909091
63 1 0.728601 0.154772 0.909091
64 1 0.812019 0.249031 0.909091
65 1 0.916146 0.220526 0.909091
79 1 0.825486 0.422617 0.909091
67 1 0.574219 0.381184 0.909091
68 1 0.64145 0.230223 0.909091
69 1 0.756599 0.263082 0.909091
70 1 0.86299 0.259157 0.909091
74 1 0.739316 0.434651 0.909091
72 1 0.63305 0.33548 0.909091
73 1 0.646269 0.401213 0.909091
6 1 0.96613 0.114513 0.909091
76 1 0.571902 0.439482 0.909091
77 1 0.632321 0.486899 0.909091
78 1 0.7307 0.498205 0.909091
84 1 0.814655 0.490138 0.909091
36 1 0.907561 0.808388 0.909091
31 1 0.978422 0.601038 0.909091
1 1 0.988632 0.96549 0.909091
97 1 0.655332 0.875258 0.909091
80 1 0.873076 0.50314 0.909091
100 1 0.919514 0.910319 0.909091
82 1 0.682645 0.612849 0.909091
83 1 0.746512 0.58339 0.909091
96 1 0.658305 0.95599 0.909091
85 1 0.860084 0.567814 0.909091
99 1 0.726668 0.947578 0.909091
87 1 0.4996 0.610685 0.909091
88 1 0.624452 0.682691 0.909091
89 1 0.811052 0.619688 0.909091
90 1 0.904789 0.687045 0.909091
98 1 0.831264 0.98228 0.909091
92 1 0.514164 0.925169 0.909091
93 1 0.656458 0.756077 0.909091
94 1 0.782411 0.85562 0.909091
95 1 0.842893 0.678736 0.909091
ITEM: TIMESTEP
175
ITEM: NUMBER OF ATOMS
100
ITEM: BOX BOUNDS pp pp pp
0.0000000000000000e+00 1.8130943107347374e+01
0.0000000000000000e+00 1.8130943107347374e+01
-1.8130943107347375e-01 1.8130943107347374e-02
ITEM: ATOMS id type xs ys zs
25 1 0.361786 0.314654 0.909091
2 1 0.0637266 0.0461327 0.909091
71 1 0.479629 0.446237 0.909091
51 1 0.425197 0.0392784 0.909091
23 1 0.244704 0.395012 0.909091
24 1 0.34354 0.486818 0.909091
7 1 0.0117124 0.160002 0.909091
66 1 0.494767 0.347821 0.909091
9 1 0.275327 0.0654467 0.909091
10 1 0.407821 0.255763 0.909091
29 1 0.266955 0.491008 0.909091
12 1 0.0776252 0.19217 0.909091
13 1 0.247337 0.172438 0.909091
14 1 0.248266 0.255622 0.909091
15 1 0.494731 0.0833703 0.909091
16 1 0.0929855 0.299042 0.909091
17 1 0.14452 0.412372 0.909091
18 1 0.192542 0.227806 0.909091
19 1 0.295949 0.36081 0.909091
20 1 0.388335 0.378335 0.909091
21 1 0.0459187 0.351925 0.909091
22 1 0.0725801 0.399955 0.909091
27 1 0.115044 0.467838 0.909091
28 1 0.22641 0.459708 0.909091
75 1 0.0134639 0.435481 0.909091
11 1 0.0249308 0.266287 0.909091
26 1 0.00155778 0.500346 0.909091
50 1 0.409387 0.822605 0.909091
91 1 0.403863 0.726231 0.909091
86 1 0.384371 0.658193 0.909091
81 1 0.468683 0.664452 0.909091
30 1 0.418583 0.545309 0.909091
49 1 0.351008 0.936543 0.909091
32 1 0.129219 0.58966 0.909091
33 1 0.206432 0.538278 0.909091
34 1 0.273462 0.542162 0.909091
35 1 0.430664 0.61442 0.909091
48 1 0.184293 0.885946 0.909091
37 1 0.111191 0.656962 0.909091
38 1 0.167739 0.777418 0.909091
39 1 0.342866 0.729146 0.909091
40 1 0.34318 0.619334 0.909091
41 1 0.0602355 0.774536 0.909091
42 1 0.0955656 0.717765 0.909091
43 1 0.259264 0.936601 0.909091
44 1 0.285856 0.887478 0.909091
45 1 0.32276 0.818655 0.909091
5 1 0.41135 0.889045 0.909091
47 1 0.0476865 0.87782 0.909091
3 1 0.127305 0.944734 0.909091
4 1 0.416354 0.966 0.909091
87 1 0.4959 0.597518 0.909091
8 1 0.255915 0.991207 0.909091
84 1 0.808971 0.46782 0.909091
52 1 0.601841 0.13218 0.909091
53 1 0.751497 0.0506529 0.909091
54 1 0.903921 0.0781176 0.909091
55 1 0.996265 0.0377326 0.909091
56 1 0.554909 0.0938473 0.909091
57 1 0.674687 0.124107 0.909091
58 1 0.622278 0.00103708 0.909091
59 1 0.705419 0.0848138 0.909091
60 1 0.781323 0.164143 0.909091
61 1 0.642658 0.167458 0.909091
62 1 0.518235 0.283556 0.909091
63 1 0.728774 0.150184 0.909091
64 1 0.798409 0.256847 0.909091
65 1 0.914678 0.214466 0.909091
79 1 0.840238 0.404088 0.909091
67 1 0.578216 0.388399 0.909091
68 1 0.639206 0.224523 0.909091
69 1 0.737995 0.274284 0.909091
70 1 0.874197 0.269655 0.909091
74 1 0.736433 0.433713 0.909091
72 1 0.634829 0.308789 0.909091
73 1 0.641413 0.409228 0.909091
6 1 0.962521 0.116917 0.909091
76 1 0.595546 0.458166 0.909091
77 1 0.628997 0.499523 0.909091
78 1 0.732142 0.502197 0.909091
36 1 0.891395 0.828863 0.909091
31 1 0.973781 0.608177 0.909091
1 1 0.983943 0.963902 0.909091
97 1 0.661464 0.874708 0.909091
80 1 0.886115 0.496872 0.909091
100 1 0.924239 0.912234 0.909091
82 1 0.697938 0.613142 0.909091
83 1 0.741008 0.581909 0.909091
96 1 0.668512 0.951253 0.909091
85 1 0.872486 0.550088 0.909091
99 1 0.735957 0.965306 0.909091
95 1 0.842386 0.662079 0.909091
88 1 0.60341 0.6884 0.909091
89 1 0.798618 0.624817 0.909091
90 1 0.896186 0.677594 0.909091
98 1 0.860643 0.983265 0.909091
92 1 0.500382 0.943903 0.909091
93 1 0.648577 0.747188 0.909091
94 1 0.780883 0.859157 0.909091
46 1 0.965988 0.851002 0.909091
ITEM: TIMESTEP
200
ITEM: NUMBER OF ATOMS
100
ITEM: BOX BOUNDS pp pp pp
0.0000000000000000e+00 1.8130943107347374e+01
0.0000000000000000e+00 1.8130943107347374e+01
-1.8130943107347375e-01 1.8130943107347374e-02
ITEM: ATOMS id type xs ys zs
25 1 0.340176 0.326239 0.909091
2 1 0.0610531 0.052683 0.909091
71 1 0.496623 0.460082 0.909091
51 1 0.40649 0.0312487 0.909091
23 1 0.252474 0.39429 0.909091
55 1 0.00832993 0.0395158 0.909091
11 1 0.0376295 0.282897 0.909091
66 1 0.485864 0.341997 0.909091
9 1 0.267526 0.0696228 0.909091
10 1 0.423545 0.25327 0.909091
29 1 0.274422 0.481112 0.909091
12 1 0.0762912 0.190694 0.909091
13 1 0.262774 0.167569 0.909091
14 1 0.243189 0.262207 0.909091
75 1 0.0156786 0.424357 0.909091
16 1 0.0904619 0.292344 0.909091
17 1 0.16792 0.432788 0.909091
18 1 0.186486 0.217183 0.909091
19 1 0.302296 0.362447 0.909091
20 1 0.381096 0.366981 0.909091
21 1 0.0512591 0.335167 0.909091
22 1 0.0693067 0.403204 0.909091
27 1 0.108 0.455576 0.909091
28 1 0.211075 0.452453 0.909091
8 1 0.260554 0.0118708 0.909091
50 1 0.408417 0.810262 0.909091
91 1 0.406092 0.708687 0.909091
86 1 0.374855 0.650154 0.909091
81 1 0.471936 0.671278 0.909091
30 1 0.424579 0.55089 0.909091
49 1 0.371534 0.949048 0.909091
32 1 0.133717 0.599989 0.909091
33 1 0.20792 0.532505 0.909091
34 1 0.259594 0.555019 0.909091
35 1 0.42898 0.608521 0.909091
48 1 0.177831 0.88382 0.909091
37 1 0.110467 0.645442 0.909091
38 1 0.169312 0.789797 0.909091
39 1 0.33093 0.735412 0.909091
40 1 0.326024 0.607952 0.909091
41 1 0.0720879 0.769326 0.909091
42 1 0.0854127 0.695085 0.909091
43 1 0.263123 0.936599 0.909091
44 1 0.298848 0.879095 0.909091
45 1 0.31422 0.822975 0.909091
5 1 0.41296 0.902642 0.909091
47 1 0.0435248 0.875565 0.909091
3 1 0.12404 0.948688 0.909091
4 1 0.430029 0.960196 0.909091
92 1 0.485623 0.96278 0.909091
24 1 0.341063 0.505967 0.909091
84 1 0.803365 0.444228 0.909091
52 1 0.5939 0.137766 0.909091
53 1 0.767581 0.0464358 0.909091
54 1 0.922182 0.0861971 0.909091
80 1 0.900968 0.47884 0.909091
56 1 0.563149 0.0839257 0.909091
57 1 0.67234 0.119926 0.909091
76 1 0.607585 0.461891 0.909091
59 1 0.702958 0.0501539 0.909091
60 1 0.778194 0.173612 0.909091
61 1 0.654041 0.180913 0.909091
62 1 0.508772 0.293322 0.909091
63 1 0.726433 0.147191 0.909091
64 1 0.79194 0.262594 0.909091
65 1 0.912236 0.209815 0.909091
79 1 0.854061 0.387578 0.909091
67 1 0.5831 0.396988 0.909091
68 1 0.638711 0.23788 0.909091
69 1 0.712726 0.286956 0.909091
70 1 0.885648 0.278409 0.909091
74 1 0.734355 0.435164 0.909091
72 1 0.636179 0.290216 0.909091
73 1 0.63634 0.416238 0.909091
6 1 0.961291 0.120353 0.909091
7 1 0.998937 0.154721 0.909091
15 1 0.505797 0.0774627 0.909091
36 1 0.876621 0.85025 0.909091
31 1 0.968886 0.615292 0.909091
1 1 0.97859 0.962879 0.909091
97 1 0.667829 0.875701 0.909091
94 1 0.779354 0.862777 0.909091
100 1 0.930295 0.913421 0.909091
82 1 0.699343 0.623294 0.909091
83 1 0.750011 0.569101 0.909091
96 1 0.654389 0.944492 0.909091
85 1 0.881742 0.543793 0.909091
99 1 0.768788 0.984822 0.909091
95 1 0.83918 0.653115 0.909091
88 1 0.583473 0.695356 0.909091
89 1 0.775014 0.618127 0.909091
90 1 0.901053 0.671769 0.909091
98 1 0.890377 0.98412 0.909091
46 1 0.936836 0.847492 0.909091
93 1 0.639652 0.737016 0.909091
58 1 0.600423 0.994328 0.909091
78 1 0.734361 0.505164 0.909091
77 1 0.636801 0.525834 0.909091
87 1 0.501802 0.584511 0.909091
26 1 0.998753 0.513078 0.909091
ITEM: TIMESTEP
225
ITEM: NUMBER OF ATOMS
100
ITEM: BOX BOUNDS pp pp pp
0.0000000000000000e+00 1.8130943107347374e+01
0.0000000000000000e+00 1.8130943107347374e+01