ITEM: TIMESTEP
0
ITEM: NUMBER OF ATOMS
100
ITEM: BOX BOUNDS pp pp pp
0.0000000000000000e+00 1.0883719140805654e+01
0.0000000000000000e+00 1.0883719140805654e+01
-1.0883719140805655e-01 1.0883719140805655e-02
ITEM: ATOMS id type xs ys zs
1 1 0 0 0.909091
2 1 0.1 0 0.909091
6 1 0 0.1 0.909091
7 1 0.1 0.1 0.909091
3 1 0.2 0 0.909091
4 1 0.3 0 0.909091
8 1 0.2 0.1 0.909091
9 1 0.3 0.1 0.909091
5 1 0.4 0 0.909091
10 1 0.4 0.1 0.909091
11 1 0 0.2 0.909091
12 1 0.1 0.2 0.909091
16 1 0 0.3 0.909091
17 1 0.1 0.3 0.909091
13 1 0.2 0.2 0.909091
14 1 0.3 0.2 0.909091
18 1 0.2 0.3 0.909091
19 1 0.3 0.3 0.909091
15 1 0.4 0.2 0.909091
20 1 0.4 0.3 0.909091
21 1 0 0.4 0.909091
22 1 0.1 0.4 0.909091
23 1 0.2 0.4 0.909091
24 1 0.3 0.4 0.909091
25 1 0.4 0.4 0.909091
26 1 0 0.5 0.909091
27 1 0.1 0.5 0.909091
31 1 0 0.6 0.909091
32 1 0.1 0.6 0.909091
28 1 0.2 0.5 0.909091
29 1 0.3 0.5 0.909091
33 1 0.2 0.6 0.909091
34 1 0.3 0.6 0.909091
30 1 0.4 0.5 0.909091
35 1 0.4 0.6 0.909091
36 1 0 0.7 0.909091
37 1 0.1 0.7 0.909091
41 1 0 0.8 0.909091
42 1 0.1 0.8 0.909091
38 1 0.2 0.7 0.909091
39 1 0.3 0.7 0.909091
43 1 0.2 0.8 0.909091
44 1 0.3 0.8 0.909091
40 1 0.4 0.7 0.909091
45 1 0.4 0.8 0.909091
46 1 0 0.9 0.909091
47 1 0.1 0.9 0.909091
48 1 0.2 0.9 0.909091
49 1 0.3 0.9 0.909091
50 1 0.4 0.9 0.909091
51 1 0.5 0 0.909091
52 1 0.6 0 0.909091
56 1 0.5 0.1 0.909091
57 1 0.6 0.1 0.909091
53 1 0.7 0 0.909091
54 1 0.8 0 0.909091
58 1 0.7 0.1 0.909091
59 1 0.8 0.1 0.909091
55 1 0.9 0 0.909091
60 1 0.9 0.1 0.909091
61 1 0.5 0.2 0.909091
62 1 0.6 0.2 0.909091
66 1 0.5 0.3 0.909091
67 1 0.6 0.3 0.909091
63 1 0.7 0.2 0.909091
64 1 0.8 0.2 0.909091
68 1 0.7 0.3 0.909091
69 1 0.8 0.3 0.909091
65 1 0.9 0.2 0.909091
70 1 0.9 0.3 0.909091
71 1 0.5 0.4 0.909091
72 1 0.6 0.4 0.909091
73 1 0.7 0.4 0.909091
74 1 0.8 0.4 0.909091
75 1 0.9 0.4 0.909091
76 1 0.5 0.5 0.909091
77 1 0.6 0.5 0.909091
81 1 0.5 0.6 0.909091
82 1 0.6 0.6 0.909091
78 1 0.7 0.5 0.909091
79 1 0.8 0.5 0.909091
83 1 0.7 0.6 0.909091
84 1 0.8 0.6 0.909091
80 1 0.9 0.5 0.909091
85 1 0.9 0.6 0.909091
86 1 0.5 0.7 0.909091
87 1 0.6 0.7 0.909091
91 1 0.5 0.8 0.909091
92 1 0.6 0.8 0.909091
88 1 0.7 0.7 0.909091
89 1 0.8 0.7 0.909091
93 1 0.7 0.8 0.909091
94 1 0.8 0.8 0.909091
90 1 0.9 0.7 0.909091
95 1 0.9 0.8 0.909091
96 1 0.5 0.9 0.909091
97 1 0.6 0.9 0.909091
98 1 0.7 0.9 0.909091
99 1 0.8 0.9 0.909091
100 1 0.9 0.9 0.909091
ITEM: TIMESTEP
50
ITEM: NUMBER OF ATOMS
100
ITEM: BOX BOUNDS pp pp pp
0.0000000000000000e+00 1.0883719140805654e+01
0.0000000000000000e+00 1.0883719140805654e+01
-1.0883719140805655e-01 1.0883719140805655e-02
ITEM: ATOMS id type xs ys zs
1 1 0.00423307 0.0246281 0.909091
27 1 0.0846661 0.496173 0.909091
25 1 0.375839 0.433953 0.909091
7 1 0.0730247 0.078784 0.909091
3 1 0.247425 0.0228664 0.909091
4 1 0.336841 0.0113014 0.909091
8 1 0.213291 0.126914 0.909091
9 1 0.311652 0.106042 0.909091
22 1 0.0693582 0.399111 0.909091
10 1 0.413528 0.084296 0.909091
24 1 0.266466 0.385916 0.909091
12 1 0.0788781 0.199289 0.909091
16 1 0.0475409 0.281599 0.909091
17 1 0.128346 0.316539 0.909091
13 1 0.19986 0.22428 0.909091
14 1 0.290041 0.213193 0.909091
18 1 0.22085 0.310292 0.909091
19 1 0.314906 0.297092 0.909091
15 1 0.386532 0.17135 0.909091
20 1 0.409679 0.284907 0.909091
23 1 0.164909 0.401434 0.909091
76 1 0.486938 0.456468 0.909091
5 1 0.429787 0.983067 0.909091
2 1 0.150212 0.999172 0.909091
50 1 0.402322 0.897347 0.909091
32 1 0.123073 0.590401 0.909091
28 1 0.19945 0.510449 0.909091
29 1 0.286024 0.525469 0.909091
33 1 0.235814 0.616075 0.909091
34 1 0.359992 0.607657 0.909091
30 1 0.428519 0.539912 0.909091
35 1 0.449755 0.626851 0.909091
49 1 0.300497 0.926944 0.909091
37 1 0.0854648 0.674937 0.909091
48 1 0.207783 0.928473 0.909091
42 1 0.073604 0.776471 0.909091
38 1 0.192226 0.709726 0.909091
39 1 0.27718 0.688387 0.909091
43 1 0.195069 0.841994 0.909091
44 1 0.299511 0.838059 0.909091
40 1 0.402577 0.706656 0.909091
45 1 0.388454 0.804938 0.909091
47 1 0.0699253 0.877848 0.909091
86 1 0.506842 0.70621 0.909091
21 1 0.978639 0.375417 0.909091
52 1 0.610133 0.0265641 0.909091
56 1 0.499711 0.0770524 0.909091
57 1 0.600632 0.128016 0.909091
11 1 0.962862 0.204861 0.909091
54 1 0.777382 0.029709 0.909091
58 1 0.69148 0.0529871 0.909091
59 1 0.765667 0.12729 0.909091
6 1 0.960777 0.112237 0.909091
60 1 0.869747 0.0593091 0.909091
75 1 0.896706 0.393427 0.909091
62 1 0.596054 0.223036 0.909091
74 1 0.80236 0.423879 0.909091
67 1 0.617839 0.312201 0.909091
63 1 0.686079 0.192919 0.909091
64 1 0.796408 0.23664 0.909091
68 1 0.721215 0.300011 0.909091
69 1 0.841272 0.325325 0.909091
65 1 0.874524 0.151983 0.909091
70 1 0.937122 0.293833 0.909091
71 1 0.536527 0.363838 0.909091
72 1 0.616466 0.426832 0.909091
73 1 0.713993 0.391602 0.909091
78 1 0.682399 0.493939 0.909091
66 1 0.518559 0.274313 0.909091
61 1 0.507396 0.172461 0.909091
80 1 0.866329 0.481804 0.909091
26 1 0.978207 0.469757 0.909091
46 1 0.968046 0.910214 0.909091
77 1 0.595512 0.52416 0.909091
81 1 0.527008 0.583924 0.909091
82 1 0.629768 0.621832 0.909091
41 1 0.956856 0.781837 0.909091
79 1 0.782991 0.516455 0.909091
83 1 0.714759 0.581472 0.909091
84 1 0.790888 0.638141 0.909091
96 1 0.506129 0.904964 0.909091
85 1 0.871912 0.578978 0.909091
100 1 0.893547 0.84987 0.909091
87 1 0.593572 0.715819 0.909091
91 1 0.492544 0.795968 0.909091
92 1 0.60486 0.824806 0.909091
88 1 0.705631 0.669449 0.909091
89 1 0.775706 0.725157 0.909091
93 1 0.696373 0.775405 0.909091
94 1 0.802897 0.826669 0.909091
90 1 0.881122 0.67011 0.909091
95 1 0.87184 0.761185 0.909091
99 1 0.803227 0.932047 0.909091
97 1 0.607299 0.922163 0.909091
98 1 0.722085 0.868462 0.909091
31 1 0.994051 0.582977 0.909091
36 1 0.988817 0.681795 0.909091
51 1 0.532886 0.989953 0.909091
53 1 0.685328 0.967055 0.909091
55 1 0.908971 0.97442 0.909091
ITEM: TIMESTEP
100
ITEM: NUMBER OF ATOMS
100
ITEM: BOX BOUNDS pp pp pp
0.0000000000000000e+00 1.0883719140805654e+01
0.0000000000000000e+00 1.0883719140805654e+01
-1.0883719140805655e-01 1.0883719140805655e-02
ITEM: ATOMS id type xs ys zs
76 1 0.439456 0.403564 0.909091
23 1 0.190597 0.396911 0.909091
25 1 0.374781 0.463407 0.909091
7 1 0.0598041 0.0784545 0.909091
3 1 0.253926 0.0327725 0.909091
4 1 0.340751 0.023172 0.909091
8 1 0.198387 0.125641 0.909091
9 1 0.307942 0.116633 0.909091
22 1 0.0771784 0.395516 0.909091
10 1 0.424426 0.13451 0.909091
24 1 0.273107 0.458581 0.909091
12 1 0.0683446 0.182069 0.909091
16 1 0.0247513 0.266166 0.909091
17 1 0.138554 0.324869 0.909091
13 1 0.152953 0.214076 0.909091
14 1 0.264009 0.209101 0.909091
18 1 0.254478 0.317864 0.909091
19 1 0.361682 0.342668 0.909091
15 1 0.361419 0.205349 0.909091
20 1 0.433279 0.275313 0.909091
2 1 0.159577 0.0446534 0.909091
26 1 0.00440242 0.456968 0.909091
1 1 0.00436046 0.00779054 0.909091
5 1 0.447985 0.978448 0.909091
91 1 0.468272 0.780131 0.909091
50 1 0.402668 0.88716 0.909091
32 1 0.127752 0.590334 0.909091
28 1 0.198636 0.518119 0.909091
29 1 0.317491 0.539185 0.909091
33 1 0.238867 0.602189 0.909091
34 1 0.334995 0.638751 0.909091
30 1 0.470567 0.502736 0.909091
35 1 0.430392 0.598994 0.909091
49 1 0.303059 0.930856 0.909091
37 1 0.0789355 0.658549 0.909091
48 1 0.191414 0.947896 0.909091
42 1 0.0481174 0.753749 0.909091
38 1 0.185863 0.72864 0.909091
39 1 0.297166 0.740435 0.909091
43 1 0.178281 0.815244 0.909091
44 1 0.273042 0.840538 0.909091
40 1 0.412604 0.706852 0.909091
45 1 0.372449 0.792817 0.909091
47 1 0.08302 0.846202 0.909091
27 1 0.0886313 0.507039 0.909091
46 1 0.00756344 0.909297 0.909091
21 1 0.985287 0.344758 0.909091
52 1 0.630494 0.0118628 0.909091
56 1 0.525393 0.080318 0.909091
57 1 0.596462 0.149634 0.909091
11 1 0.982761 0.174977 0.909091
54 1 0.758252 0.037483 0.909091
58 1 0.68393 0.0914301 0.909091
59 1 0.773518 0.131086 0.909091
6 1 0.941811 0.0857544 0.909091
60 1 0.853027 0.0560658 0.909091
75 1 0.897331 0.394721 0.909091
62 1 0.626583 0.242004 0.909091
74 1 0.791468 0.414118 0.909091
67 1 0.610392 0.333608 0.909091
63 1 0.695044 0.186397 0.909091
64 1 0.807506 0.226169 0.909091
68 1 0.713278 0.292345 0.909091
69 1 0.807547 0.318879 0.909091
65 1 0.889123 0.174619 0.909091
70 1 0.910739 0.264664 0.909091
71 1 0.523503 0.355369 0.909091
72 1 0.588664 0.4263 0.909091
73 1 0.697643 0.377555 0.909091
78 1 0.697948 0.483804 0.909091
66 1 0.537066 0.261134 0.909091
61 1 0.501151 0.17568 0.909091
80 1 0.899759 0.48677 0.909091
86 1 0.502932 0.688528 0.909091
77 1 0.613095 0.526956 0.909091
81 1 0.53107 0.578079 0.909091
82 1 0.609044 0.623377 0.909091
41 1 0.959014 0.816037 0.909091
79 1 0.790698 0.516282 0.909091
83 1 0.694298 0.576715 0.909091
84 1 0.786341 0.643896 0.909091
96 1 0.513903 0.88358 0.909091
85 1 0.861135 0.571508 0.909091
100 1 0.881841 0.86011 0.909091
87 1 0.601348 0.720038 0.909091
55 1 0.912 0.980531 0.909091
92 1 0.594236 0.813562 0.909091
88 1 0.700242 0.683466 0.909091
89 1 0.783215 0.734111 0.909091
93 1 0.687702 0.779502 0.909091
94 1 0.791712 0.827201 0.909091
90 1 0.884871 0.664581 0.909091
95 1 0.889643 0.759673 0.909091
99 1 0.805232 0.92532 0.909091
97 1 0.625452 0.915741 0.909091
98 1 0.701897 0.867606 0.909091
31 1 0.978461 0.55579 0.909091
36 1 0.990922 0.686525 0.909091
51 1 0.546426 0.967898 0.909091
53 1 0.711659 0.965671 0.909091
ITEM: TIMESTEP
150
ITEM: NUMBER OF ATOMS
100
ITEM: BOX BOUNDS pp pp pp
0.0000000000000000e+00 1.0883719140805654e+01
0.0000000000000000e+00 1.0883719140805654e+01
-1.0883719140805655e-01 1.0883719140805655e-02
ITEM: ATOMS id type xs ys zs
76 1 0.421246 0.389283 0.909091
23 1 0.227978 0.393598 0.909091
25 1 0.381778 0.474983 0.909091
7 1 0.0421371 0.0975168 0.909091
3 1 0.232712 0.0309406 0.909091
4 1 0.374554 0.0476372 0.909091
8 1 0.218939 0.117976 0.909091
9 1 0.30677 0.119269 0.909091
22 1 0.0634239 0.394586 0.909091
10 1 0.394455 0.143007 0.909091
24 1 0.283266 0.464555 0.909091
12 1 0.127855 0.133897 0.909091
16 1 0.0638707 0.231826 0.909091
17 1 0.127086 0.323826 0.909091
13 1 0.168904 0.230796 0.909091
14 1 0.256639 0.195533 0.909091
18 1 0.241584 0.300158 0.909091
19 1 0.325457 0.368851 0.909091
15 1 0.366709 0.259628 0.909091
20 1 0.445254 0.296387 0.909091
2 1 0.125645 0.0322475 0.909091
1 1 0.021924 0.0073463 0.909091
30 1 0.477831 0.459533 0.909091
27 1 0.147898 0.461288 0.909091
5 1 0.439031 0.985841 0.909091
91 1 0.47826 0.776781 0.909091
50 1 0.408221 0.892726 0.909091
32 1 0.13108 0.59123 0.909091
28 1 0.215031 0.527578 0.909091
29 1 0.306216 0.561902 0.909091
33 1 0.233715 0.621245 0.909091
34 1 0.308409 0.68623 0.909091
46 1 0.000725944 0.903964 0.909091
35 1 0.416025 0.562281 0.909091
49 1 0.299069 0.971411 0.909091
37 1 0.0674596 0.669684 0.909091
48 1 0.188846 0.937478 0.909091
42 1 0.0735104 0.761616 0.909091
38 1 0.165164 0.699921 0.909091
39 1 0.242068 0.756088 0.909091
43 1 0.159936 0.783976 0.909091
44 1 0.276864 0.858194 0.909091
40 1 0.405464 0.726325 0.909091
45 1 0.358226 0.808175 0.909091
47 1 0.0878424 0.872757 0.909091
21 1 0.980578 0.376107 0.909091
26 1 1.00138 0.475761 0.909091
56 1 0.50157 0.0747904 0.909091
57 1 0.589473 0.151038 0.909091
11 1 0.999162 0.174652 0.909091
54 1 0.756229 0.0598848 0.909091
58 1 0.671932 0.0888498 0.909091
59 1 0.795869 0.13848 0.909091
6 1 0.948448 0.0612418 0.909091
60 1 0.854724 0.0565436 0.909091
75 1 0.8904 0.372011 0.909091
62 1 0.640645 0.240467 0.909091
74 1 0.804762 0.428949 0.909091
67 1 0.615171 0.333786 0.909091
63 1 0.707459 0.18229 0.909091
64 1 0.822944 0.229363 0.909091
68 1 0.714622 0.286164 0.909091
69 1 0.795604 0.32648 0.909091
65 1 0.900411 0.148058 0.909091
70 1 0.896545 0.278236 0.909091
71 1 0.515071 0.374424 0.909091
72 1 0.584493 0.435716 0.909091
73 1 0.708281 0.380618 0.909091
80 1 0.887769 0.466254 0.909091
66 1 0.528053 0.262036 0.909091
61 1 0.496411 0.168494 0.909091
86 1 0.523992 0.651127 0.909091
77 1 0.593205 0.531175 0.909091
81 1 0.509676 0.547523 0.909091
82 1 0.620372 0.618729 0.909091
41 1 0.988971 0.806231 0.909091
79 1 0.784214 0.524796 0.909091
83 1 0.709883 0.590125 0.909091
84 1 0.797505 0.617079 0.909091
96 1 0.499745 0.882775 0.909091
85 1 0.878281 0.560988 0.909091
100 1 0.883079 0.874753 0.909091
87 1 0.602307 0.709521 0.909091
55 1 0.906868 0.965469 0.909091
92 1 0.569543 0.799564 0.909091
88 1 0.710938 0.684147 0.909091
89 1 0.796073 0.707344 0.909091
93 1 0.670736 0.772302 0.909091
94 1 0.785309 0.800288 0.909091
90 1 0.886705 0.662979 0.909091
95 1 0.904719 0.777116 0.909091
99 1 0.809628 0.953899 0.909091
97 1 0.608554 0.881068 0.909091
98 1 0.715549 0.876089 0.909091
31 1 0.977991 0.580722 0.909091
36 1 0.985435 0.689975 0.909091
51 1 0.532477 0.978424 0.909091
53 1 0.714757 0.963175 0.909091
52 1 0.628929 0.990145 0.909091
78 1 0.691479 0.501711 0.909091
ITEM: TIMESTEP
200
ITEM: NUMBER OF ATOMS
100
ITEM: BOX BOUNDS pp pp pp
0.0000000000000000e+00 1.0883719140805654e+01
0.0000000000000000e+00 1.0883719140805654e+01
-1.0883719140805655e-01 1.0883719140805655e-02
ITEM: ATOMS id type xs ys zs
76 1 0.395127 0.377704 0.909091
23 1 0.202081 0.38131 0.909091
25 1 0.38424 0.478587 0.909091
7 1 0.0342147 0.111511 0.909091
3 1 0.236211 0.0111721 0.909091
4 1 0.39185 0.0731227 0.909091
8 1 0.193205 0.0871816 0.909091
9 1 0.299318 0.0954457 0.909091
22 1 0.0565422 0.439407 0.909091
10 1 0.382069 0.157517 0.909091
24 1 0.270313 0.454542 0.909091
12 1 0.113236 0.149964 0.909091
16 1 0.081212 0.237012 0.909091
17 1 0.128956 0.321307 0.909091
13 1 0.19669 0.196067 0.909091
14 1 0.300327 0.21292 0.909091
18 1 0.250234 0.279644 0.909091
19 1 0.290082 0.365049 0.909091
15 1 0.352473 0.289904 0.909091
20 1 0.441967 0.296092 0.909091
2 1 0.12695 0.024554 0.909091
56 1 0.49551 0.0614341 0.909091
30 1 0.490961 0.461457 0.909091
27 1 0.172584 0.466188 0.909091
61 1 0.475997 0.167957 0.909091
5 1 0.431584 0.95788 0.909091
91 1 0.458288 0.788627 0.909091
50 1 0.36448 0.883367 0.909091
32 1 0.0862745 0.530582 0.909091
28 1 0.214453 0.549579 0.909091
29 1 0.307105 0.567266 0.909091
33 1 0.24607 0.641794 0.909091
34 1 0.31874 0.695894 0.909091
47 1 0.0772325 0.907344 0.909091
35 1 0.410849 0.618781 0.909091
49 1 0.346636 0.988961 0.909091
37 1 0.0851237 0.631219 0.909091
48 1 0.184356 0.938133 0.909091
42 1 0.073718 0.755226 0.909091
38 1 0.161449 0.710857 0.909091
39 1 0.248735 0.784635 0.909091
43 1 0.16743 0.829655 0.909091
44 1 0.281011 0.883127 0.909091
40 1 0.424974 0.708431 0.909091
45 1 0.341293 0.794616 0.909091
1 1 0.0266648 0.982663 0.909091
81 1 0.494857 0.556013 0.909091
21 1 0.993197 0.377326 0.909091
66 1 0.537889 0.251403 0.909091
80 1 0.921747 0.464388 0.909091
57 1 0.571818 0.124402 0.909091
73 1 0.710191 0.367668 0.909091
54 1 0.757384 0.0430184 0.909091
58 1 0.652698 0.0800602 0.909091
59 1 0.818865 0.13919 0.909091
6 1 0.953879 0.0677265 0.909091
60 1 0.859448 0.046583 0.909091
75 1 0.883176 0.363228 0.909091
62 1 0.640616 0.199256 0.909091
74 1 0.811674 0.419167 0.909091
67 1 0.60056 0.313982 0.909091
63 1 0.722517 0.161962 0.909091
64 1 0.857672 0.248151 0.909091
68 1 0.679661 0.276999 0.909091
69 1 0.771609 0.298908 0.909091
65 1 0.910474 0.152343 0.909091
70 1 0.942254 0.29467 0.909091
71 1 0.535383 0.378174 0.909091
72 1 0.620946 0.419992 0.909091
78 1 0.720059 0.483081 0.909091
11 1 0.994226 0.205903 0.909091
52 1 0.608235 0.00642373 0.909091
86 1 0.501592 0.650633 0.909091
77 1 0.613738 0.510069 0.909091
46 1 0.990739 0.901196 0.909091
82 1 0.612886 0.606101 0.909091
41 1 0.976021 0.812186 0.909091
79 1 0.802533 0.523182 0.909091
83 1 0.710972 0.579541 0.909091
84 1 0.815272 0.617725 0.909091
96 1 0.500776 0.878717 0.909091
85 1 0.891995 0.552204 0.909091
100 1 0.886616 0.864273 0.909091
87 1 0.578176 0.700462 0.909091
55 1 0.927908 0.970593 0.909091
92 1 0.573107 0.818493 0.909091
88 1 0.679847 0.684552 0.909091
89 1 0.798703 0.703821 0.909091
93 1 0.668631 0.788424 0.909091
94 1 0.794095 0.830992 0.909091
90 1 0.897489 0.65507 0.909091
95 1 0.881206 0.763749 0.909091
99 1 0.821336 0.943017 0.909091
97 1 0.607688 0.911216 0.909091
98 1 0.703394 0.874062 0.909091
31 1 0.980259 0.613694 0.909091
36 1 0.974003 0.714033 0.909091
51 1 0.519681 0.969034 0.909091
53 1 0.702181 0.965387 0.909091
26 1 0.999301 0.511868 0.909091
ITEM: TIMESTEP
250
ITEM: NUMBER OF ATOMS
100
ITEM: BOX BOUNDS pp pp pp
0.0000000000000000e+00 1.0883719140805654e+01
0.0000000000000000e+00 1.0883719140805654e+01
-1.0883719140805655e-01 1.0883719140805655e-02
ITEM: ATOMS id type xs ys zs
76 1 0.408167 0.390489 0.909091
23 1 0.182732 0.404848 0.909091
25 1 0.389765 0.498849 0.909091
7 1 0.0615481 0.105813 0.909091
3 1 0.244742 0.00568033 0.909091
4 1 0.396359 0.0644309 0.909091
8 1 0.186813 0.0836531 0.909091
9 1 0.300559 0.0695813 0.909091
22 1 0.0839129 0.431141 0.909091
10 1 0.397738 0.189984 0.909091
24 1 0.289423 0.496182 0.909091
12 1 0.132028 0.162152 0.909091
16 1 0.0971305 0.251414 0.909091
17 1 0.0840092 0.340916 0.909091
13 1 0.194758 0.222949 0.909091
14 1 0.302077 0.186585 0.909091
18 1 0.222929 0.31481 0.909091
19 1 0.306356 0.393064 0.909091
15 1 0.318392 0.278292 0.909091
20 1 0.462036 0.278994 0.909091
2 1 0.0985801 0.0117568 0.909091
56 1 0.492977 0.0471854 0.909091
30 1 0.480505 0.449513 0.909091
27 1 0.173338 0.485648 0.909091
61 1 0.4764 0.137646 0.909091
11 1 0.0244406 0.187748 0.909091
5 1 0.44874 0.960899 0.909091
91 1 0.449872 0.797103 0.909091
50 1 0.380408 0.887276 0.909091
32 1 0.100899 0.545176 0.909091
28 1 0.197051 0.573228 0.909091
29 1 0.309639 0.581157 0.909091
33 1 0.223629 0.661625 0.909091
34 1 0.317434 0.681451 0.909091
47 1 0.0956331 0.898031 0.909091
35 1 0.409907 0.615327 0.909091
49 1 0.337111 0.963982 0.909091
37 1 0.139273 0.646289 0.909091
48 1 0.163683 0.950588 0.909091
42 1 0.059975 0.770593 0.909091
38 1 0.1733 0.737169 0.909091
39 1 0.259746 0.808966 0.909091
43 1 0.14303 0.824316 0.909091
44 1 0.242797 0.897245 0.909091
40 1 0.433338 0.699425 0.909091
45 1 0.351697 0.769607 0.909091
31 1 0.0455795 0.638104 0.909091
81 1 0.478496 0.556432 0.909091
46 1 0.0126732 0.92412 0.909091
21 1 1.00123 0.370805 0.909091
66 1 0.557315 0.220499 0.909091
80 1 0.923242 0.452266 0.909091
57 1 0.563002 0.113168 0.909091
73 1 0.700904 0.345036 0.909091
54 1 0.753147 0.0566971 0.909091
58 1 0.672965 0.0894405 0.909091
59 1 0.837914 0.144257 0.909091
6 1 0.931705 0.0833952 0.909091
60 1 0.846578 0.0392726 0.909091
75 1 0.893842 0.333551 0.909091
62 1 0.631719 0.170576 0.909091
74 1 0.787724 0.405337 0.909091
67 1 0.618397 0.297953 0.909091
63 1 0.741697 0.162931 0.909091
64 1 0.889984 0.243412 0.909091
68 1 0.69883 0.246239 0.909091
69 1 0.792917 0.244687 0.909091
65 1 0.927475 0.170571 0.909091
70 1 0.9886 0.276454 0.909091
71 1 0.513882 0.361809 0.909091
72 1 0.6124 0.399943 0.909091
78 1 0.694978 0.464483 0.909091
52 1 0.613085 0.013431 0.909091
1 1 0.986729 0.00858502 0.909091
86 1 0.508488 0.657725 0.909091
77 1 0.603755 0.50463 0.909091
51 1 0.534094 0.961569 0.909091
82 1 0.604865 0.609446 0.909091
41 1 0.977591 0.828362 0.909091
79 1 0.800561 0.503611 0.909091
83 1 0.6906 0.571696 0.909091
84 1 0.781619 0.599394 0.909091
26 1 0.99503 0.533136 0.909091
85 1 0.872243 0.56684 0.909091
100 1 0.884854 0.863413 0.909091
87 1 0.581015 0.723278 0.909091
55 1 0.90044 0.963757 0.909091
92 1 0.585179 0.818771 0.909091
88 1 0.686953 0.664138 0.909091
89 1 0.760142 0.739659 0.909091
93 1 0.674412 0.773982 0.909091
94 1 0.776989 0.826427 0.909091
90 1 0.878574 0.661646 0.909091
95 1 0.871382 0.769637 0.909091
99 1 0.798361 0.923747 0.909091
97 1 0.618411 0.917759 0.909091
98 1 0.685696 0.865728 0.909091
53 1 0.690302 0.97842 0.909091
36 1 0.966859 0.711166 0.909091
96 1 0.509698 0.869837 0.909091
