実験日時: 2024-02-22T15:14:04.942
LAMMPS (2 Aug 2023)
OMP_NUM_THREADS environment is not set. Defaulting to 1 thread. (src/comm.cpp:98)
  using 1 OpenMP thread(s) per MPI task
# 3d Lennard-Jones melt

units		lj # LJ単位系.
atom_style	atomic # 粒子.

lattice		fcc 0.00442 # 粒子の初期配置.  ココ
Lattice spacing in x,y,z = 9.6726597 9.6726597 9.6726597
region		box block 0 10 0 10 0 10 # 系の領域設定. ココ
create_box	1 box # 系の生成.
Created orthogonal box = (0 0 0) to (96.726597 96.726597 96.726597)
  1 by 2 by 2 MPI processor grid
create_atoms	1 box # 粒子の生成.
Created 4000 atoms
  using lattice units in orthogonal box = (0 0 0) to (96.726597 96.726597 96.726597)
  create_atoms CPU = 0.001 seconds
mass		1 1.0 # 粒子の設定.

velocity	all create 3.0 87287 loop geom # 全原子の速度を初期化.

# 粒子-粒子間相互作用ポテンシャル
pair_style	lj/cut 2.5
pair_coeff	1 1 1.0 1.0 2.5

# 高速化コマンド. neighbor list に入れる距離指定.
neighbor	0.3 bin
neigh_modify	every 20 delay 0 check no

fix		1 all nve # NVEアンサンブルでシミュレーション.

# 出力コマンド
# lammpstrj
# dump		id all atom 50 melt.dump
dump		id all atom 50 output.lammpstrj # VMDでは拡張子「.lammpstrj」を認識する.

# image
# dump		2 all image 25 image.*.jpg type type # 		axes yes 0.8 0.02 view 60 -30
# dump_modify	2 pad 3

# movie > うまくいったことがない.
# dump		3 all movie 25 movie.mpg type type # 		axes yes 0.8 0.02 view 60 -30
# dump_modify	3 pad 3

thermo		50 # 熱力学情報の出力頻度を設定.
# run		250 # 実行
run		2500 # 実行. 10倍にした.
Generated 0 of 0 mixed pair_coeff terms from geometric mixing rule
Neighbor list info ...
  update: every = 20 steps, delay = 0 steps, check = no
  max neighbors/atom: 2000, page size: 100000
  master list distance cutoff = 2.8
  ghost atom cutoff = 2.8
  binsize = 1.4, bins = 70 70 70
  1 neighbor lists, perpetual/occasional/extra = 1 0 0
  (1) pair lj/cut, perpetual
      attributes: half, newton on
      pair build: half/bin/atomonly/newton
      stencil: half/bin/3d
      bin: standard
Per MPI rank memory allocation (min/avg/max) = 3.047 | 3.047 | 3.047 Mbytes
   Step          Temp          E_pair         E_mol          TotEng         Press     
         0   3              0              0              4.498875       0.013256685  
        50   3              0              0              4.498875       0.013256685  
       100   3              0              0              4.498875       0.013256685  
       150   3.0004172     -0.00085482873  0              4.4986458      0.013251443  
       200   3.0065938     -0.011029863    0              4.4977333      0.01328592   
       250   3.0096129     -0.016125397    0              4.4971653      0.013286063  
       300   3.0105172     -0.017746373    0              4.4969005      0.013261183  
       350   3.0107626     -0.018358226    0              4.4966567      0.013373105  
       400   3.011898      -0.020345154    0              4.4963724      0.013421178  
       450   3.0142156     -0.02379343     0              4.4963996      0.01325784   
       500   3.0132658     -0.022277951    0              4.4964908      0.013288803  
       550   3.0118771     -0.020185591    0              4.4965006      0.013357779  
       600   3.0138413     -0.023262602    0              4.4963692      0.013294852  
       650   3.0106638     -0.018548925    0              4.4963178      0.013416367  
       700   3.0118863     -0.020437427    0              4.4962625      0.013396171  
       750   3.0128238     -0.021844066    0              4.4962618      0.013324821  
       800   3.0132139     -0.022414335    0              4.4962765      0.013324897  
       850   3.0124745     -0.021295223    0              4.4962868      0.013324977  
       900   3.0131085     -0.022148709    0              4.4963841      0.013304398  
       950   3.0124402     -0.021172622    0              4.496358       0.013301412  
      1000   3.0120926     -0.020865877    0              4.4961435      0.013383015  
      1050   3.0141174     -0.023944624    0              4.4961012      0.013346975  
      1100   3.0139238     -0.023771736    0              4.4959837      0.013281829  
      1150   3.016288      -0.027395343    0              4.4959056      0.013271597  
      1200   3.0128713     -0.022234707    0              4.4959424      0.013413887  
      1250   3.013748      -0.023520606    0              4.4959713      0.013349994  
      1300   3.0135938     -0.023308515    0              4.4959521      0.013334519  
      1350   3.0138435     -0.023585413    0              4.4960496      0.01334875   
      1400   3.0143207     -0.024415278    0              4.4959355      0.013270418  
      1450   3.0137718     -0.023549682    0              4.4959778      0.013334779  
      1500   3.0158225     -0.026647869    0              4.495955       0.013310881  
      1550   3.0107991     -0.01915072     0              4.4959188      0.013435063  
      1600   3.011474      -0.02008009     0              4.4960015      0.013343831  
      1650   3.0122115     -0.0212155      0              4.4959721      0.013289969  
      1700   3.0117177     -0.020501918    0              4.4959452      0.013375375  
      1750   3.0138504     -0.023870105    0              4.4957754      0.013284925  
      1800   3.0139012     -0.024085767    0              4.4956358      0.013366845  
      1850   3.0138365     -0.02401011     0              4.4956144      0.01333195   
      1900   3.0127667     -0.022320665    0              4.4956997      0.013306175  
      1950   3.0133249     -0.023213278    0              4.495644       0.013275746  
      2000   3.0134398     -0.02330008     0              4.4957295      0.013316888  
      2050   3.0123866     -0.021793022    0              4.4956573      0.013311966  
      2100   3.0134529     -0.023218775    0              4.4958305      0.01329293   
      2150   3.0133352     -0.022971203    0              4.4959016      0.013240407  
      2200   3.0092678     -0.016829336    0              4.4959439      0.013404981  
      2250   3.0114837     -0.020264902    0              4.4958313      0.013307129  
      2300   3.0105922     -0.018909996    0              4.4958494      0.013278694  
      2350   3.0123471     -0.02172604     0              4.495665       0.013294635  
      2400   3.0130332     -0.022901036    0              4.4955189      0.013333265  
      2450   3.0114681     -0.020627531    0              4.4954453      0.013387817  
      2500   3.0134822     -0.023627161    0              4.4954661      0.013269848  
Loop time of 0.21841 on 4 procs for 2500 steps with 4000 atoms

Performance: 4944824.288 tau/day, 11446.353 timesteps/s, 45.785 Matom-step/s
91.7% CPU use with 4 MPI tasks x 1 OpenMP threads

MPI task timing breakdown:
Section |  min time  |  avg time  |  max time  |%varavg| %total
---------------------------------------------------------------
Pair    | 0.017429   | 0.017606   | 0.01774    |   0.1 |  8.06
Neigh   | 0.030285   | 0.031574   | 0.034835   |   1.1 | 14.46
Comm    | 0.064873   | 0.071424   | 0.075463   |   1.5 | 32.70
Output  | 0.056396   | 0.060663   | 0.063679   |   1.1 | 27.77
Modify  | 0.029739   | 0.030505   | 0.031558   |   0.4 | 13.97
Other   |            | 0.006639   |            |       |  3.04

Nlocal:           1000 ave        1021 max         971 min
Histogram: 1 0 0 0 0 0 2 0 0 1
Nghost:         323.25 ave         340 max         307 min
Histogram: 1 1 0 0 0 0 0 0 1 1
Neighs:         202.25 ave         227 max         184 min
Histogram: 1 1 0 0 0 1 0 0 0 1

Total # of neighbors = 809
Ave neighs/atom = 0.20225
Neighbor list builds = 125
Dangerous builds not checked
Total wall time: 0:00:00
