実験日時: 2024-02-22T14:46:34.845
LAMMPS (2 Aug 2023)
OMP_NUM_THREADS environment is not set. Defaulting to 1 thread. (src/comm.cpp:98)
  using 1 OpenMP thread(s) per MPI task
# 3d Lennard-Jones melt

units		lj # LJ単位系.
atom_style	atomic # 粒子.

lattice		fcc 0.8442 # 粒子の初期配置.
Lattice spacing in x,y,z = 1.6795962 1.6795962 1.6795962
region		box block 0 10 0 10 0 10 # 系の領域設定.
create_box	1 box # 系の生成.
Created orthogonal box = (0 0 0) to (16.795962 16.795962 16.795962)
  1 by 2 by 2 MPI processor grid
create_atoms	1 box # 粒子の生成.
Created 4000 atoms
  using lattice units in orthogonal box = (0 0 0) to (16.795962 16.795962 16.795962)
  create_atoms CPU = 0.001 seconds
mass		1 1.0 # 粒子の設定.

velocity	all create 3.0 87287 loop geom # 全原子の速度を初期化.

# 粒子-粒子間相互作用ポテンシャル
pair_style	lj/cut 2.5
pair_coeff	1 1 1.0 1.0 2.5

# 高速化コマンド. neighbor list に入れる距離指定.
neighbor	0.3 bin
neigh_modify	every 20 delay 0 check no

fix		1 all nve # NVEアンサンブルでシミュレーション.

# 出力コマンド
# lammpstrj
# dump		id all atom 50 melt.dump
dump		id all atom 50 output.lammpstrj # VMDでは拡張子「.lammpstrj」を認識する.

# image
# dump		2 all image 25 image.*.jpg type type # 		axes yes 0.8 0.02 view 60 -30
# dump_modify	2 pad 3

# movie > うまくいったことがない.
# dump		3 all movie 25 movie.mpg type type # 		axes yes 0.8 0.02 view 60 -30
# dump_modify	3 pad 3

thermo		50 # 熱力学情報の出力頻度を設定.
# run		250 # 実行
run		2500 # 実行. 10倍にした.
Generated 0 of 0 mixed pair_coeff terms from geometric mixing rule
Neighbor list info ...
  update: every = 20 steps, delay = 0 steps, check = no
  max neighbors/atom: 2000, page size: 100000
  master list distance cutoff = 2.8
  ghost atom cutoff = 2.8
  binsize = 1.4, bins = 12 12 12
  1 neighbor lists, perpetual/occasional/extra = 1 0 0
  (1) pair lj/cut, perpetual
      attributes: half, newton on
      pair build: half/bin/atomonly/newton
      stencil: half/bin/3d
      bin: standard
Per MPI rank memory allocation (min/avg/max) = 2.706 | 2.706 | 2.706 Mbytes
   Step          Temp          E_pair         E_mol          TotEng         Press     
         0   3             -6.7733681      0             -2.2744931     -3.7033504    
        50   1.6842865     -4.8082494      0             -2.2824513      5.5666131    
       100   1.6712577     -4.7875609      0             -2.281301       5.6613913    
       150   1.6444751     -4.7471034      0             -2.2810074      5.8614211    
       200   1.6471542     -4.7509053      0             -2.2807916      5.8805431    
       250   1.6645597     -4.7774327      0             -2.2812174      5.7526089    
       300   1.6690862     -4.7847612      0             -2.2817579      5.6987134    
       350   1.6631594     -4.7751734      0             -2.2810579      5.7736731    
       400   1.6419785     -4.7444455      0             -2.2820934      5.8758775    
       450   1.6628543     -4.7763955      0             -2.2827377      5.7986836    
       500   1.6537895     -4.7631505      0             -2.2830864      5.775773     
       550   1.6297832     -4.7270662      0             -2.2830026      5.9350286    
       600   1.6271964     -4.7231038      0             -2.2829194      6.0017252    
       650   1.618136      -4.7100691      0             -2.283472       5.9850798    
       700   1.6211578     -4.7155258      0             -2.2843969      6.0152503    
       750   1.6573876     -4.769758       0             -2.2842981      5.7680876    
       800   1.6438711     -4.7500747      0             -2.2848845      5.8353745    
       850   1.6499602     -4.759332       0             -2.2850104      5.8231595    
       900   1.6476688     -4.7570081      0             -2.2861228      5.8114718    
       950   1.6404627     -4.7460178      0             -2.285939       5.8635844    
      1000   1.6606379     -4.7764527      0             -2.2861186      5.7521862    
      1050   1.6461894     -4.7543831      0             -2.2857163      5.8324898    
      1100   1.6295037     -4.7308301      0             -2.2871856      5.9087575    
      1150   1.6345826     -4.7388556      0             -2.2875947      5.8762896    
      1200   1.6529966     -4.7663349      0             -2.2874598      5.8188693    
      1250   1.6433577     -4.7523286      0             -2.2879084      5.8689254    
      1300   1.6377244     -4.7445135      0             -2.288541       5.872191     
      1350   1.6168671     -4.7126726      0             -2.2879782      6.0074816    
      1400   1.64758       -4.7594322      0             -2.2886801      5.8240842    
      1450   1.6276847     -4.7298095      0             -2.2888928      5.9496727    
      1500   1.6585216     -4.7762308      0             -2.2890703      5.740404     
      1550   1.6452089     -4.7572865      0             -2.2900902      5.8578226    
      1600   1.6239255     -4.7250048      0             -2.2897254      5.9347303    
      1650   1.6290212     -4.7329881      0             -2.2900672      5.9079419    
      1700   1.6289494     -4.7342838      0             -2.2914706      5.9244375    
      1750   1.6273743     -4.7309762      0             -2.290525       5.9790769    
      1800   1.6183443     -4.7178154      0             -2.2909059      5.9640057    
      1850   1.6306583     -4.7367443      0             -2.2913684      5.9268561    
      1900   1.6310722     -4.7380637      0             -2.2920671      5.8900344    
      1950   1.6332789     -4.7411926      0             -2.2918867      5.8703587    
      2000   1.6330102     -4.7411528      0             -2.2922499      5.8900336    
      2050   1.6278391     -4.7339352      0             -2.2927869      5.9339174    
      2100   1.6680601     -4.7951575      0             -2.2936928      5.667582     
      2150   1.6399951     -4.7524928      0             -2.2931152      5.8082329    
      2200   1.6420734     -4.7563169      0             -2.2938225      5.8100975    
      2250   1.6408816     -4.7550807      0             -2.2943738      5.8420223    
      2300   1.6350687     -4.7461945      0             -2.2942045      5.847333     
      2350   1.6396642     -4.7537725      0             -2.2948911      5.8116024    
      2400   1.6424134     -4.7581011      0             -2.2950969      5.8393845    
      2450   1.6324745     -4.743677       0             -2.2955774      5.8516461    
      2500   1.6435455     -4.760032       0             -2.2953301      5.8211857    
Loop time of 1.57479 on 4 procs for 2500 steps with 4000 atoms

Performance: 685805.491 tau/day, 1587.513 timesteps/s, 6.350 Matom-step/s
99.4% CPU use with 4 MPI tasks x 1 OpenMP threads

MPI task timing breakdown:
Section |  min time  |  avg time  |  max time  |%varavg| %total
---------------------------------------------------------------
Pair    | 1.1214     | 1.1473     | 1.169      |   1.9 | 72.85
Neigh   | 0.2062     | 0.20959    | 0.21226    |   0.5 | 13.31
Comm    | 0.13374    | 0.15717    | 0.18689    |   5.6 |  9.98
Output  | 0.035105   | 0.036138   | 0.037127   |   0.4 |  2.29
Modify  | 0.020088   | 0.02031    | 0.020492   |   0.1 |  1.29
Other   |            | 0.00429    |            |       |  0.27

Nlocal:           1000 ave        1006 max         993 min
Histogram: 1 0 0 0 1 0 1 0 0 1
Nghost:        2692.75 ave        2702 max        2673 min
Histogram: 1 0 0 0 0 0 0 0 2 1
Neighs:        37921.8 ave       38777 max       36637 min
Histogram: 1 0 0 0 1 0 0 0 0 2

Total # of neighbors = 151687
Ave neighs/atom = 37.92175
Neighbor list builds = 125
Dangerous builds not checked
Total wall time: 0:00:01
