実験日時: 2024-02-22T15:44:11.094
LAMMPS (2 Aug 2023)
OMP_NUM_THREADS environment is not set. Defaulting to 1 thread. (src/comm.cpp:98)
  using 1 OpenMP thread(s) per MPI task
# 3d Lennard-Jones melt

units		lj # LJ単位系.
atom_style	atomic # 粒子.
dimension   2 #　次元

lattice		sq 0.8442 # 粒子の初期配置.  ココ
Lattice spacing in x,y,z = 1.0883719 1.0883719 1.0883719
region		box block 0 10 0 10 -00.1 0.01  # 系の領域設定. ココ
create_box	1 box # 系の生成.
Created orthogonal box = (0 0 -0.10883719) to (10.883719 10.883719 0.010883719)
  2 by 2 by 1 MPI processor grid
create_atoms	1 box # 粒子の生成.
Created 100 atoms
  using lattice units in orthogonal box = (0 0 -0.10883719) to (10.883719 10.883719 0.010883719)
  create_atoms CPU = 0.000 seconds
mass		1 1.0 # 粒子の設定.

velocity	all create 3.0 87287 loop geom # 全原子の速度を初期化.

# 粒子-粒子間相互作用ポテンシャル
pair_style	lj/cut 2.5
pair_coeff	1 1 1.0 1.0 2.5

# 高速化コマンド. neighbor list に入れる距離指定.
neighbor	0.3 bin
neigh_modify	every 20 delay 0 check no

fix		1 all nve # NVEアンサンブルでシミュレーション.

# 出力コマンド
# lammpstrj
# dump		id all atom 50 melt.dump
dump		id all atom 50 output.lammpstrj # VMDでは拡張子「.lammpstrj」を認識する.

# image
# dump		2 all image 25 image.*.jpg type type # 		axes yes 0.8 0.02 view 60 -30
# dump_modify	2 pad 3

# movie > うまくいったことがない.
# dump		3 all movie 25 movie.mpg type type # 		axes yes 0.8 0.02 view 60 -30
# dump_modify	3 pad 3

thermo		50 # 熱力学情報の出力頻度を設定.
# run		250 # 実行
run		250 # 実行. 10倍にした.
Generated 0 of 0 mixed pair_coeff terms from geometric mixing rule
Neighbor list info ...
  update: every = 20 steps, delay = 0 steps, check = no
  max neighbors/atom: 2000, page size: 100000
  master list distance cutoff = 2.8
  ghost atom cutoff = 2.8
  binsize = 1.4, bins = 8 8 1
  1 neighbor lists, perpetual/occasional/extra = 1 0 0
  (1) pair lj/cut, perpetual
      attributes: half, newton on
      pair build: half/bin/atomonly/newton
      stencil: half/bin/2d
      bin: standard
Per MPI rank memory allocation (min/avg/max) = 2.547 | 2.547 | 2.547 Mbytes
   Step          Temp          E_pair         E_mol          TotEng         Press     
         0   3             -2.6248859      0              0.34511408     3.3106011    
        50   1.7524476     -1.3550133      0              0.37990986     11.697155    
       100   2.2000412     -1.8015493      0              0.37649145     8.9619339    
       150   1.9163255     -1.5207009      0              0.37646137     10.681219    
       200   1.9907369     -1.5946564      0              0.3761731      9.8908773    
       250   1.7944177     -1.3979011      0              0.37857245     11.028042    
Loop time of 0.00596452 on 4 procs for 250 steps with 100 atoms

Performance: 18107070.123 tau/day, 41914.514 timesteps/s, 4.191 Matom-step/s
89.9% CPU use with 4 MPI tasks x 1 OpenMP threads

MPI task timing breakdown:
Section |  min time  |  avg time  |  max time  |%varavg| %total
---------------------------------------------------------------
Pair    | 0.0005535  | 0.00071105 | 0.00077928 |   0.0 | 11.92
Neigh   | 0.00011221 | 0.00014061 | 0.00018658 |   0.0 |  2.36
Comm    | 0.0044981  | 0.0046301  | 0.0048179  |   0.2 | 77.63
Output  | 0.00024404 | 0.00026773 | 0.00031883 |   0.0 |  4.49
Modify  | 7.7704e-05 | 0.00011911 | 0.00019437 |   0.0 |  2.00
Other   |            | 9.594e-05  |            |       |  1.61

Nlocal:             25 ave          26 max          23 min
Histogram: 1 0 0 0 0 0 1 0 0 2
Nghost:             77 ave          81 max          75 min
Histogram: 2 0 0 1 0 0 0 0 0 1
Neighs:          242.5 ave         256 max         231 min
Histogram: 1 0 0 1 1 0 0 0 0 1

Total # of neighbors = 970
Ave neighs/atom = 9.7
Neighbor list builds = 12
Dangerous builds not checked
Total wall time: 0:00:00
