実験日時: 2024-02-22T01:26:31.228
LAMMPS (2 Aug 2023)
OMP_NUM_THREADS environment is not set. Defaulting to 1 thread. (src/comm.cpp:98)
  using 1 OpenMP thread(s) per MPI task
# 3次元のLennard-Jones溶融体

# LJ単位系を使用
units		lj

# 原子スタイルを原子型に設定
atom_style	atomic

# 粒子の初期配置: fcc格子を使用して, 数密度を0.8442に設定
lattice		fcc 0.8442
Lattice spacing in x,y,z = 1.6795962 1.6795962 1.6795962
# シミュレーションボックス領域を定義
region		box block 0 10 0 10 0 10
# 1つのボックス内に1種類の原子を作成
create_box	1 box
Created orthogonal box = (0 0 0) to (16.795962 16.795962 16.795962)
  1 by 2 by 2 MPI processor grid
# タイプ1の原子をシミュレーションボックス内に作成
create_atoms	1 box
Created 4000 atoms
  using lattice units in orthogonal box = (0 0 0) to (16.795962 16.795962 16.795962)
  create_atoms CPU = 0.000 seconds
# 原子の質量を設定
mass		1 1.0

# 全原子に初期速度を設定
velocity	all create 3.0 87287 loop geom

# LJポテンシャルをカットオフ半径2.5で適用
pair_style	lj/cut 2.5
# LJポテンシャルの係数を設定
pair_coeff	1 1 1.0 1.0 2.5

# 近接原子探索のスキンサイズとビンサイズを設定
neighbor	0.3 bin
# 近接リストの修正頻度を設定
neigh_modify	every 20 delay 0 check no

# NVEアンサンブルを用いて全原子を修正
fix		1 all nve

# 溶融体の原子の位置を50ステップごとにファイルにダンプ
dump		id all atom 50 output.lammpstrj

# # 溶融体の状態を画像として25ステップごとにファイルにダンプ
# dump		2 all image 25 image.*.jpg type type # 		axes yes 0.8 0.02 view 60 -30
# # 画像のパディングを設定
# dump_modify	2 pad 3

# 動画ファイルへの溶融体の状態のダンプ
# dump		3 all movie 25 movie.mpg type type #		axes yes 0.8 0.02 view 60 -30
# 動画のパディングを設定
# dump_modify	3 pad 3

# 熱力学情報の出力頻度を設定
thermo		50
# シミュレーションを250ステップ実行
run		250
Generated 0 of 0 mixed pair_coeff terms from geometric mixing rule
Neighbor list info ...
  update: every = 20 steps, delay = 0 steps, check = no
  max neighbors/atom: 2000, page size: 100000
  master list distance cutoff = 2.8
  ghost atom cutoff = 2.8
  binsize = 1.4, bins = 12 12 12
  1 neighbor lists, perpetual/occasional/extra = 1 0 0
  (1) pair lj/cut, perpetual
      attributes: half, newton on
      pair build: half/bin/atomonly/newton
      stencil: half/bin/3d
      bin: standard
Per MPI rank memory allocation (min/avg/max) = 2.706 | 2.706 | 2.706 Mbytes
   Step          Temp          E_pair         E_mol          TotEng         Press     
         0   3             -6.7733681      0             -2.2744931     -3.7033504    
        50   1.6842865     -4.8082494      0             -2.2824513      5.5666131    
       100   1.6712577     -4.7875609      0             -2.281301       5.6613913    
       150   1.6444751     -4.7471034      0             -2.2810074      5.8614211    
       200   1.6471542     -4.7509053      0             -2.2807916      5.8805431    
       250   1.6645597     -4.7774327      0             -2.2812174      5.7526089    
Loop time of 0.169819 on 4 procs for 250 steps with 4000 atoms

Performance: 635970.772 tau/day, 1472.155 timesteps/s, 5.889 Matom-step/s
99.5% CPU use with 4 MPI tasks x 1 OpenMP threads

MPI task timing breakdown:
Section |  min time  |  avg time  |  max time  |%varavg| %total
---------------------------------------------------------------
Pair    | 0.12154    | 0.12453    | 0.12698    |   0.6 | 73.33
Neigh   | 0.021864   | 0.022193   | 0.022356   |   0.1 | 13.07
Comm    | 0.013844   | 0.016221   | 0.019618   |   1.8 |  9.55
Output  | 0.0038983  | 0.0040495  | 0.0041878  |   0.2 |  2.38
Modify  | 0.0022148  | 0.0022643  | 0.0023286  |   0.1 |  1.33
Other   |            | 0.0005619  |            |       |  0.33

Nlocal:           1000 ave        1008 max         987 min
Histogram: 1 0 0 0 0 0 1 0 1 1
Nghost:        2711.25 ave        2728 max        2693 min
Histogram: 1 0 0 0 0 2 0 0 0 1
Neighs:          37947 ave       38966 max       37338 min
Histogram: 1 1 0 1 0 0 0 0 0 1

Total # of neighbors = 151788
Ave neighs/atom = 37.947
Neighbor list builds = 12
Dangerous builds not checked
Total wall time: 0:00:00
