実験日時: 2024-02-22T14:51:23.646
LAMMPS (2 Aug 2023)
OMP_NUM_THREADS environment is not set. Defaulting to 1 thread. (src/comm.cpp:98)
  using 1 OpenMP thread(s) per MPI task
# 3d Lennard-Jones melt

units		lj # LJ単位系.
atom_style	atomic # 粒子.

lattice		fcc 0.6442 # 粒子の初期配置.  ココ
Lattice spacing in x,y,z = 1.8380039 1.8380039 1.8380039
region		box block 0 10 0 10 0 10 # 系の領域設定. ココ
create_box	1 box # 系の生成.
Created orthogonal box = (0 0 0) to (18.380039 18.380039 18.380039)
  1 by 2 by 2 MPI processor grid
create_atoms	1 box # 粒子の生成.
Created 4000 atoms
  using lattice units in orthogonal box = (0 0 0) to (18.380039 18.380039 18.380039)
  create_atoms CPU = 0.001 seconds
mass		1 1.0 # 粒子の設定.

velocity	all create 3.0 87287 loop geom # 全原子の速度を初期化.

# 粒子-粒子間相互作用ポテンシャル
pair_style	lj/cut 2.5
pair_coeff	1 1 1.0 1.0 2.5

# 高速化コマンド. neighbor list に入れる距離指定.
neighbor	0.3 bin
neigh_modify	every 20 delay 0 check no

fix		1 all nve # NVEアンサンブルでシミュレーション.

# 出力コマンド
# lammpstrj
# dump		id all atom 50 melt.dump
dump		id all atom 50 output.lammpstrj # VMDでは拡張子「.lammpstrj」を認識する.

# image
# dump		2 all image 25 image.*.jpg type type # 		axes yes 0.8 0.02 view 60 -30
# dump_modify	2 pad 3

# movie > うまくいったことがない.
# dump		3 all movie 25 movie.mpg type type # 		axes yes 0.8 0.02 view 60 -30
# dump_modify	3 pad 3

thermo		50 # 熱力学情報の出力頻度を設定.
# run		250 # 実行
run		2500 # 実行. 10倍にした.
Generated 0 of 0 mixed pair_coeff terms from geometric mixing rule
Neighbor list info ...
  update: every = 20 steps, delay = 0 steps, check = no
  max neighbors/atom: 2000, page size: 100000
  master list distance cutoff = 2.8
  ghost atom cutoff = 2.8
  binsize = 1.4, bins = 14 14 14
  1 neighbor lists, perpetual/occasional/extra = 1 0 0
  (1) pair lj/cut, perpetual
      attributes: half, newton on
      pair build: half/bin/atomonly/newton
      stencil: half/bin/3d
      bin: standard
Per MPI rank memory allocation (min/avg/max) = 2.709 | 2.709 | 2.709 Mbytes
   Step          Temp          E_pair         E_mol          TotEng         Press     
         0   3             -4.6158261      0             -0.11695113    -2.6695327    
        50   2.2616365     -3.5079268      0             -0.11632021     3.450378     
       100   2.2757516     -3.5312327      0             -0.11845869     3.3560126    
       150   2.2810609     -3.5396826      0             -0.11894665     3.3022228    
       200   2.2749258     -3.5320097      0             -0.12047409     3.2957553    
       250   2.2612752     -3.512779       0             -0.1217142      3.330238     
       300   2.2671411     -3.5225515      0             -0.12268995     3.3209813    
       350   2.2738259     -3.5332023      0             -0.12331621     3.2476189    
       400   2.2756169     -3.5380561      0             -0.12548405     3.2846442    
       450   2.2863601     -3.5543778      0             -0.12569512     3.2091001    
       500   2.2499872     -3.5010156      0             -0.12687847     3.3731135    
       550   2.2674967     -3.5291465      0             -0.12875184     3.2769548    
       600   2.2837184     -3.55494        0             -0.13021878     3.2440958    
       650   2.2660103     -3.5284293      0             -0.1302637      3.2684087    
       700   2.2726843     -3.5398281      0             -0.13165392     3.2540915    
       750   2.2741344     -3.542986       0             -0.13263718     3.2256346    
       800   2.2480067     -3.5045148      0             -0.13334766     3.3364649    
       850   2.2542017     -3.51515        0             -0.13469283     3.3306705    
       900   2.2528064     -3.5147767      0             -0.13641192     3.3335428    
       950   2.280413      -3.556855       0             -0.13709067     3.2807371    
      1000   2.2545455     -3.5197318      0             -0.13875905     3.3402746    
      1050   2.2780289     -3.5549795      0             -0.13879035     3.2274481    
      1100   2.2623099     -3.5338231      0             -0.14120654     3.2814029    
      1150   2.2677565     -3.5434808      0             -0.1426965      3.2294723    
      1200   2.2543442     -3.5234509      0             -0.14278004     3.3044667    
      1250   2.2497474     -3.5179229      0             -0.14414542     3.3367709    
      1300   2.2637807     -3.5406701      0             -0.1458479      3.2594955    
      1350   2.2660428     -3.5450044      0             -0.14678992     3.2573896    
      1400   2.2379325     -3.50352        0             -0.1474605      3.3511545    
      1450   2.24844       -3.519656       0             -0.14783911     3.3369754    
      1500   2.2691932     -3.5523777      0             -0.14943885     3.187544     
      1550   2.2507407     -3.5261059      0             -0.15083885     3.2633254    
      1600   2.2618967     -3.5436871      0             -0.15169021     3.2306313    
      1650   2.2482433     -3.5236173      0             -0.15209533     3.3218023    
      1700   2.2694208     -3.5578442      0             -0.15456401     3.204979     
      1750   2.2727061     -3.5636738      0             -0.15546685     3.202196     
      1800   2.2738455     -3.5663194      0             -0.15640392     3.162929     
      1850   2.2432982     -3.5218674      0             -0.15776135     3.2847154    
      1900   2.2546821     -3.5397971      0             -0.15861942     3.3243813    
      1950   2.2393975     -3.5184075      0             -0.16015098     3.3371447    
      2000   2.2805234     -3.581417       0             -0.16148706     3.1135206    
      2050   2.2550519     -3.5432434      0             -0.16151125     3.2360308    
      2100   2.2825477     -3.5861624      0             -0.16319674     3.0812177    
      2150   2.2396131     -3.5228532      0             -0.16427342     3.2856476    
      2200   2.2490256     -3.5385303      0             -0.16583535     3.2899695    
      2250   2.2493055     -3.5386063      0             -0.16549153     3.2114731    
      2300   2.2731376     -3.5765033      0             -0.1676493      3.0744238    
      2350   2.2770178     -3.5834634      0             -0.16879051     3.1069455    
      2400   2.2668876     -3.5699228      0             -0.17044149     3.1661997    
      2450   2.2606995     -3.5607795      0             -0.170578       3.182371     
      2500   2.2393505     -3.5302275      0             -0.17204155     3.2578703    
Loop time of 2.31302 on 4 procs for 2500 steps with 4000 atoms

Performance: 466922.716 tau/day, 1080.840 timesteps/s, 4.323 Matom-step/s
92.9% CPU use with 4 MPI tasks x 1 OpenMP threads

MPI task timing breakdown:
Section |  min time  |  avg time  |  max time  |%varavg| %total
---------------------------------------------------------------
Pair    | 1.3106     | 1.3597     | 1.3847     |   2.5 | 58.78
Neigh   | 0.23377    | 0.23855    | 0.24231    |   0.7 | 10.31
Comm    | 0.57821    | 0.60696    | 0.65834    |   3.9 | 26.24
Output  | 0.063101   | 0.066388   | 0.069371   |   0.9 |  2.87
Modify  | 0.033976   | 0.034935   | 0.036042   |   0.5 |  1.51
Other   |            | 0.006483   |            |       |  0.28

Nlocal:           1000 ave        1012 max         978 min
Histogram: 1 0 0 0 0 0 0 1 1 1
Nghost:        2376.25 ave        2393 max        2356 min
Histogram: 1 0 0 1 0 0 0 0 1 1
Neighs:        29074.5 ave       29823 max       28418 min
Histogram: 1 1 0 0 0 0 1 0 0 1

Total # of neighbors = 116298
Ave neighs/atom = 29.0745
Neighbor list builds = 125
Dangerous builds not checked
Total wall time: 0:00:02
