実験日時: 2024-02-22T15:42:14.048
LAMMPS (2 Aug 2023)
OMP_NUM_THREADS environment is not set. Defaulting to 1 thread. (src/comm.cpp:98)
  using 1 OpenMP thread(s) per MPI task
# 3d Lennard-Jones melt

units		lj # LJ単位系.
atom_style	atomic # 粒子.
dimension   2 #　次元

lattice		sq 0.8442 # 粒子の初期配置.  ココ
Lattice spacing in x,y,z = 1.0883719 1.0883719 1.0883719
region		box block 0 10 0 10 -00.1 0.01  # 系の領域設定. ココ
create_box	1 box # 系の生成.
Created orthogonal box = (0 0 -0.10883719) to (10.883719 10.883719 0.010883719)
  2 by 2 by 1 MPI processor grid
create_atoms	1 box # 粒子の生成.
Created 100 atoms
  using lattice units in orthogonal box = (0 0 -0.10883719) to (10.883719 10.883719 0.010883719)
  create_atoms CPU = 0.000 seconds
mass		1 1.0 # 粒子の設定.

velocity	all create 3.0 87287 loop geom # 全原子の速度を初期化.

# 粒子-粒子間相互作用ポテンシャル
pair_style	lj/cut 2.5
pair_coeff	1 1 1.0 1.0 2.5

# 高速化コマンド. neighbor list に入れる距離指定.
neighbor	0.3 bin
neigh_modify	every 20 delay 0 check no

fix		1 all nve # NVEアンサンブルでシミュレーション.

# 出力コマンド
# lammpstrj
# dump		id all atom 50 melt.dump
dump		id all atom 50 output.lammpstrj # VMDでは拡張子「.lammpstrj」を認識する.

# image
# dump		2 all image 25 image.*.jpg type type # 		axes yes 0.8 0.02 view 60 -30
# dump_modify	2 pad 3

# movie > うまくいったことがない.
# dump		3 all movie 25 movie.mpg type type # 		axes yes 0.8 0.02 view 60 -30
# dump_modify	3 pad 3

thermo		50 # 熱力学情報の出力頻度を設定.
# run		250 # 実行
run		2500 # 実行. 10倍にした.
Generated 0 of 0 mixed pair_coeff terms from geometric mixing rule
Neighbor list info ...
  update: every = 20 steps, delay = 0 steps, check = no
  max neighbors/atom: 2000, page size: 100000
  master list distance cutoff = 2.8
  ghost atom cutoff = 2.8
  binsize = 1.4, bins = 8 8 1
  1 neighbor lists, perpetual/occasional/extra = 1 0 0
  (1) pair lj/cut, perpetual
      attributes: half, newton on
      pair build: half/bin/atomonly/newton
      stencil: half/bin/2d
      bin: standard
Per MPI rank memory allocation (min/avg/max) = 2.547 | 2.547 | 2.547 Mbytes
   Step          Temp          E_pair         E_mol          TotEng         Press     
         0   3             -2.6248859      0              0.34511408     3.3106011    
        50   1.7524476     -1.3550133      0              0.37990986     11.697155    
       100   2.2000412     -1.8015493      0              0.37649145     8.9619339    
       150   1.9163255     -1.5207009      0              0.37646137     10.681219    
       200   1.9907369     -1.5946564      0              0.3761731      9.8908773    
       250   1.7944177     -1.3979011      0              0.37857245     11.028042    
       300   2.2044688     -1.8053249      0              0.37709928     8.9868255    
       350   1.9447344     -1.543182       0              0.38210506     10.464126    
       400   1.9735789     -1.5771827      0              0.37666044     10.145417    
       450   1.9680918     -1.5698492      0              0.37856163     10.043755    
       500   2.0396746     -1.6397173      0              0.37956051     9.6739381    
       550   2.0446219     -1.6467278      0              0.37744791     9.8130039    
       600   2.2124004     -1.8136142      0              0.37666228     8.6084676    
       650   2.0770148     -1.6797597      0              0.37648498     9.3024641    
       700   2.1428532     -1.7439855      0              0.37743915     9.1255109    
       750   1.9521596     -1.5566597      0              0.37597822     10.461691    
       800   2.1206817     -1.7241279      0              0.37534705     9.2587683    
       850   1.8291618     -1.436082       0              0.3747882      11.021895    
       900   1.918327      -1.524264       0              0.37487974     10.309837    
       950   1.8727766     -1.4758021      0              0.37824674     10.917068    
      1000   2.0853719     -1.6908267      0              0.37369153     9.1988123    
      1050   2.0276246     -1.6308807      0              0.37646758     9.7177397    
      1100   1.7902716     -1.3959058      0              0.37646317     11.233459    
      1150   2.0707502     -1.6748777      0              0.37516496     9.652058     
      1200   1.8250689     -1.4278259      0              0.3789923      10.912348    
      1250   2.0937743     -1.6966603      0              0.37617626     9.2111715    
      1300   2.2592889     -1.8635215      0              0.37317453     8.4681488    
      1350   2.0522095     -1.6564996      0              0.37518777     9.5803693    
      1400   1.7895452     -1.3945698      0              0.3770799      11.506914    
      1450   1.9942322     -1.595949       0              0.37834092     9.9869486    
      1500   2.044329      -1.646814       0              0.37707168     9.6469492    
      1550   2.103156      -1.7071301      0              0.37499436     9.2041706    
      1600   1.8645228     -1.4706921      0              0.3751855      10.299898    
      1650   2.0168033     -1.6220889      0              0.37454633     9.6820224    
      1700   2.0022893     -1.6066996      0              0.3755668      9.9466514    
      1750   1.7606742     -1.3658798      0              0.37718769     11.268991    
      1800   2.0574069     -1.660415       0              0.37641783     9.7369913    
      1850   2.0823519     -1.6876336      0              0.37389479     9.3411314    
      1900   1.9618816     -1.567247       0              0.3750158      10.147653    
      1950   1.9267517     -1.531507       0              0.37597714     10.219496    
      2000   1.9321634     -1.5403427      0              0.37249907     10.643426    
      2050   2.1059825     -1.7085169      0              0.37640573     9.2552455    
      2100   1.9679706     -1.5754171      0              0.3728738      10.498053    
      2150   2.0329608     -1.6381655      0              0.37446577     9.5251885    
      2200   2.0028537     -1.6087202      0              0.37410503     10.002155    
      2250   1.8208551     -1.4263864      0              0.37626014     11.138299    
      2300   2.0521654     -1.6602721      0              0.37137168     9.3606734    
      2350   1.8396758     -1.4463643      0              0.37491471     10.763107    
      2400   2.134324      -1.7404913      0              0.37248948     9.3466051    
      2450   1.8146578     -1.4220767      0              0.37443447     10.912358    
      2500   2.315636      -1.9206363      0              0.37184333     8.1125296    
Loop time of 0.0250678 on 4 procs for 2500 steps with 100 atoms

Performance: 43083173.513 tau/day, 99729.568 timesteps/s, 9.973 Matom-step/s
98.0% CPU use with 4 MPI tasks x 1 OpenMP threads

MPI task timing breakdown:
Section |  min time  |  avg time  |  max time  |%varavg| %total
---------------------------------------------------------------
Pair    | 0.0049651  | 0.0052265  | 0.005612   |   0.4 | 20.85
Neigh   | 0.0010508  | 0.0011321  | 0.001272   |   0.3 |  4.52
Comm    | 0.01519    | 0.015525   | 0.015988   |   0.3 | 61.93
Output  | 0.0016095  | 0.0018242  | 0.0023349  |   0.7 |  7.28
Modify  | 0.00064952 | 0.0006884  | 0.00071471 |   0.0 |  2.75
Other   |            | 0.0006716  |            |       |  2.68

Nlocal:             25 ave          26 max          24 min
Histogram: 1 0 0 0 0 2 0 0 0 1
Nghost:           78.5 ave          81 max          77 min
Histogram: 1 0 2 0 0 0 0 0 0 1
Neighs:         237.25 ave         250 max         220 min
Histogram: 1 0 0 1 0 0 0 0 0 2

Total # of neighbors = 949
Ave neighs/atom = 9.49
Neighbor list builds = 125
Dangerous builds not checked
Total wall time: 0:00:00
